# vtk DataFile Version 3.0
vtk output
ASCII
DATASET UNSTRUCTURED_GRID
POINTS 800 float
0 22.4851 26 12.4645 0 26 0 0 3.48613 
26 17.5406 0 16.4962 0 0 0 0 0 
26 0 0 26 26 0 20.5061 0 0 
0 0 7.5181 16.5391 0 26 10.5117 26 0 
0 26 0 0 0 26 26 0 26 
26 26 26 0 26 26 26 7.45995 0 
2.45939 26 0 0 26 8.46449 14.5406 26 26 
7.40817 26 26 3.70409 26 26 5.55613 23.4715 26 
2.89643 23.4659 26 1.28156 23.4677 26 0 23.8122 26 
0 26 19.0759 0 21.4729 21.132 0 10.6408 14.4759 
0 16.8925 16.4439 0 18.8281 9.46589 0 22.3451 8.47147 
2.72427 26 4.6665 3.46817 26 2.28351 7.53245 26 4.85987 
15.2707 26 6.26055 19.3174 26 16.2934 14.518 26 19.9602 
13.5341 26 22.9838 13.536 26 21.3125 9.56367 22.4786 26 
16.2727 18.2742 26 16.2783 22.3325 26 14.665 23.8135 26 
13.0562 20.4419 26 11.5531 21.8772 26 7.68217 23.4686 26 
0 22.4652 23.4649 0 20.2555 17.7398 0 18.4116 17.5135 
0 21.4582 19.2227 0 13.1502 17.4182 0 10.4668 17.1655 
0 9.49591 15.7523 0 9.66138 14.749 3.03988 0 5.50212 
6.46589 0 13.9681 7.52257 0 20.9525 7.4159 7.52446 26 
12.5233 0 16.6238 21.0457 0 18.5217 11.4442 0 10.8492 
7.11175 0 9.46639 6.12038 0 11.6213 5.4822 0 10.0222 
4.52696 0 7.61849 2.24206 0 8.53411 3.56632 0 8.52999 
0.913086 0 8.48499 6.47478 0 17.5389 9.36115 0 18.5206 
7.75333 0 18.5138 6.82061 0 18.4112 8.96585 0 24.4825 
10.4075 0 21.833 12.3025 0 23.4887 14.7105 0 24.2557 
14.7929 2.68692 26 20.4883 10.0101 26 20.0379 4.48414 26 
23.5293 6.9809 26 22.4215 4.84039 26 26 12.5022 22.4932 
24.518 10.9655 26 22.2219 11.6741 26 23.5573 11.9268 26 
22.7832 12.3628 26 17.5286 20.3016 26 18.0954 18.5478 26 
17.2909 17.6989 26 11.4289 0 13.8402 11.4284 0 15.4473 
12.3276 0 15.7081 19.4744 7.31142 26 12.4606 2.35572 26 
10.5205 5.50835 26 12.4403 4.51652 26 14.2209 4.37881 26 
11.3531 0 18.2572 9.19923 0 20.6254 7.48951 0 23.0261 
10.7902 0 24.5093 11.8867 0 24.5034 14.2648 0 26 
16.1506 0 24.5767 7.64401 4.47731 26 6.47274 5.92174 26 
6.59423 4.82316 26 9.26834 4.47365 26 10.2109 4.60794 26 
9.40543 7.1897 26 6.48811 6.99157 26 0 11.6943 18.5041 
0 10.6455 18.2338 0 14.6185 11.7815 0 16.4244 10.0803 
6.61979 22.1403 0 4.39491 11.8302 0 2.13843 0 3.56151 
18.5011 0 3.50278 18.5016 0 1.17786 19.1578 1.40038 0 
18.0793 0.556451 0 19.7748 0.645223 0 18.9585 0 0 
18.8177 0 0.622928 19.638 0 0.502406 19.9266 0 0 
20.1069 0 0.43769 15.5508 0 2.86628 16.7413 0 4.50409 
15.5973 0 4.08405 18.4671 12.5003 0 21.1515 8.36297 0 
23.4915 7.45931 0 22.1525 7.47343 0 19.3726 10.1483 0 
18.4808 11.1552 0 23.1495 13.6515 0 26 11.2119 6.52926 
26 6.43248 4.93306 26 6.21283 2.31378 26 5.48233 3.69389 
20.1689 0.397481 0 26 11.2119 0 26 14.097 0 
24.2811 15.7533 0 26 15.8204 4.65457 26 18.5041 3.00127 
26 17.5333 1.65764 26 15.8171 0 24.5925 17.1741 0 
23.1892 26 7.50701 19.5328 26 4.95973 21.8853 26 5.48068 
20.7839 26 11.6934 21.5332 26 9.33974 16.5622 26 2.85934 
19.0404 26 2.50525 20.9266 12.5945 0 19.6591 13.5309 0 
18.7522 13.3753 0 6.65188 26 0 8.40225 26 2.19256 
6.58512 26 3.07547 5.01683 26 7.53653 0 26 13.7702 
6.00313 26 13.4659 2.94204 26 12.4437 2.52991 26 9.6712 
6.79512 26 6.68736 8.98865 26 6.50989 9.54928 23.0784 0 
11.4606 24.0681 0 16.4669 26 4.76899 12.3915 26 12.12 
14.4694 26 9.50389 9.33918 26 13.4664 4.30159 26 13.4669 
0 14.6579 15.535 0 15.9594 15.5367 0 13.5084 16.1598 
10.8496 0 14.6435 2.46746 21.8366 0 4.6743 20.2018 0 
2.63286 19.7529 0 4.49884 16.0106 0 5.54595 13.8931 0 
3.48735 14.1928 0 2.85012 12.5924 0 0 2.01145 5.50212 
0 0 5.49759 0 1.00577 5.48169 0 0.80956 6.65136 
0 1.82718 6.5125 0 2.45319 6.10467 0 0 6.70665 
3.76345 19.4777 0 5.54779 15.2116 0 5.42896 16.1437 0 
17.3855 0 0 17.9556 0 0 17.5494 0.506437 0 
16.2146 0 1.49617 17.3427 0 1.22645 17.1679 0 0.606375 
16.925 0.456516 0 19.9106 11.5233 4.50188 13.9314 14.4621 4.46855 
17.3786 15.025 15.1172 14.2372 8.25981 10.5946 13.6845 8.60607 18.8728 
16.3016 12.7783 22.5019 10.0896 15.7647 18.3919 13.6777 17.8939 21.5039 
13.5563 21.9543 22.1991 10.99 19.6203 23.167 5.44585 19.7113 21.6546 
4.47569 16.9808 17.9321 6.83564 19.162 11.5427 12.0932 20.5062 5.46711 
15.1356 22.5477 4.9267 19.7612 18.0052 4.70642 18.641 16.7428 1.44973 
16.5599 14.2747 2.38302 17.3888 11.3893 2.82075 17.2268 13.2382 9.48321 
19.9523 18.5779 10.8187 21.4958 22.2371 10.6239 22.9075 11.6884 22.8556 
22.5067 12.0151 24.4167 23.6482 15.3649 23.1426 26 14.9725 22.4963 
26 13.7361 23.508 26 13.539 22.4901 26 14.7659 23.5051 
26 15.4392 23.1174 26 12.706 23.5031 26 11.6171 23.1973 
21.4649 6.69239 23.5 7.56985 8.73503 14.2944 7.32423 4.3844 12.6429 
9.17091 2.5043 10.4932 8.50955 8.24598 7.59357 5.55745 13.9354 8.03197 
5.52493 15.6823 4.19221 5.02943 15.6191 1.4654 10.0074 16.8105 3.51347 
17.6414 15.0239 0.725544 10.6004 24.8446 0 10.5438 23.4982 0 
11.047 24.4746 0 10.4244 24.1776 0.415585 10.5789 24.3641 0 
9.45949 26 1.09869 9.41202 26 0 9.96187 26 0 
9.85062 26 0.613331 10.2256 26 0.364595 10.51 25.4187 0 
9.5733 24.977 0 9.86943 24.3315 0 10.1251 24.7445 0.418432 
9.00435 24.6977 1.23265 8.99934 23.8863 0.495881 9.14853 24.3915 0 
7.38405 24.3946 0 6.83196 20.7129 5.10755 8.41264 23.22 5.55065 
8.94707 20.5747 8.47752 6.0639 23.1727 7.44267 3.26863 20.0873 7.20282 
2.5914 23.294 6.6052 3.99738 23.9813 8.50165 3.4508 24.0463 10.9512 
0 21.417 13.2793 0 19.1487 14.853 2.69299 16.5714 15.8407 
2.58885 13.8958 15.5027 1.80016 11.8825 16.5055 5.8584 11.6951 16.4884 
4.21713 6.28624 18.744 4.80459 5.18125 22.4936 5.71836 5.28231 24.2657 
6.45617 2.63795 24.3421 8.36295 4.52337 21.8209 10.8084 4.83781 17.5665 
13.3596 7.07493 14.7504 11.5151 3.90166 13.3293 11.5212 2.15704 14.7702 
12.4891 1.68673 16.1524 10.3717 2.42298 18.4996 8.55731 1.75743 18.5 
7.28415 1.2771 18.4881 5.81102 3.75649 19.8324 8.20363 3.95962 19.4631 
8.96405 2.07303 22.4675 6.48979 2.1694 21.8283 10.4521 4.06978 23.4052 
13.7305 1.79065 24.4873 13.823 1.48219 26 11.3206 0 22.7003 
10.4718 1.42176 22.6796 9.34695 3.55462 22.4805 8.62805 2.93279 24.4589 
9.39638 5.06324 22.8472 8.41282 7.3699 23.5878 4.22663 11.1158 12.2358 
4.56725 5.0676 8.37779 4.32282 2.5157 9.53474 1.7513 2.74497 8.47956 
0.533147 1.61576 8.11373 1.03627 2.65633 7.18028 3.47649 2.17404 6.71966 
4.03515 13.0476 0.471951 5.27824 12.6899 0 4.7608 12.3379 0 
4.62983 13.0867 0 4.17456 12.6212 0 3.51097 11.9852 0 
3.99453 12.1449 0.453868 3.48201 12.6229 0.327199 2.95499 13.4777 0 
3.32582 13.7573 0 3.41688 13.2509 0.368032 3.74428 12.9901 0 
3.60645 13.4126 0 3.35489 13.0968 0 3.23458 12.3476 0 
3.21145 12.7356 0 3.49398 12.5577 0 3.86292 12.2822 0 
3.70063 12.1175 0.26402 3.39116 12.1804 0 3.51372 12.3465 0.216819 
3.54019 12.1567 0.140552 3.4555 12.0855 0 3.62205 12.1121 0 
3.52258 12.2003 0 3.45399 12.2094 0.08956 3.41173 12.3566 0 
3.40882 12.3296 0.132745 3.31741 12.2683 0 3.24862 12.5431 0.189948 
3.16833 12.9039 0.406996 3.92659 12.6005 0.446156 4.29432 12.4207 0.349728 
4.50193 12.8692 0.433074 4.77074 14.0914 1.28515 4.53714 13.605 0.711593 
4.26057 13.9116 0 3.98577 13.6494 0.469411 3.68196 15.2748 0 
4.38794 15.3124 0.734676 4.27123 14.4548 0.67621 4.87328 14.5922 0 
4.14984 14.7105 0 3.95549 14.2765 0 3.86747 14.5764 0.39732 
3.49085 14.7507 0 3.48909 14.4717 0 3.68767 14.331 0.240592 
3.81654 14.5992 0 3.66827 14.5961 0.221406 3.71535 14.3748 0 
3.66768 13.8782 0.258184 3.61561 13.5378 0.328148 3.4917 13.7091 0.186666 
3.24397 13.4757 0.179872 3.36381 13.3478 0 3.15458 13.5987 0 
3.35548 13.5535 0 3.56 13.6238 0 4.15229 13.3569 0 
3.90011 13.5879 0 3.91565 13.9332 0 3.46206 13.9545 0 
3.24462 13.6732 0 3.27309 13.5884 0.105346 5.5161 13.2683 0 
17.5088 13.3525 1.23435 19.7972 8.79252 2.85639 23.2308 9.17415 4.67733 
26 13.4932 5.53549 26 14.8178 5.52048 21.7791 15.7448 2.30567 
22.9597 15.385 5.16384 21.1282 20.0686 7.55627 22.7164 21.8238 3.50056 
26 11.1469 3.26463 22.1252 6.48363 3.13835 17.0615 0.469177 3.01979 
16.9363 0.466683 2.02072 16.4144 0 2.59466 15.5556 0 2.02275 
15.8933 0.392305 2.44644 16.3014 0.434493 1.95657 16.809 0 1.48807 
16.6391 0 2.01468 17.1566 0 1.89094 18.7614 0 2.34037 
19.4374 0 3.10208 18.8248 0.436863 2.96492 19.2009 0 2.63116 
19.0415 0 3.47132 18.998 0 3.02788 18.7719 0 3.49761 
19.2636 0 3.31258 19.2129 0.238715 3.0937 18.6296 0 3.13985 
18.8653 0 3.25329 18.6858 0.207115 3.32468 18.1289 0.461485 2.99192 
17.5648 0 3.90428 17.9601 0 3.53372 18.1562 0 3.10108 
18.336 0.288632 3.24285 17.6008 0.371299 3.2443 17.526 0 3.46675 
17.1376 0.414598 3.59457 16.3163 0.461357 3.89367 16.0597 0.463375 3.18149 
16.5755 0 3.39669 17.0557 0 3.36406 16.7855 0 2.93734 
16.5889 0.466695 2.77801 16.5392 0.465613 3.26162 16.2078 0 3.05332 
15.9643 0 2.66777 16.0211 0 2.17981 15.8013 0 1.65453 
16.0652 0.257422 1.7248 15.9233 0.41061 2.05627 15.8299 0.346327 2.85505 
15.5514 0 3.47604 16.0402 0 3.74484 15.8296 0.345306 3.54898 
16.0922 0 4.50409 16.8523 0 3.92134 17.2513 0 4.33916 
16.9374 0.291676 4.23951 16.9909 0 4.18844 17.0198 0 4.49413 
17.2734 0.248017 4.02462 17.4294 0 4.13711 17.1941 0 4.02566 
17.7387 0 3.69369 17.2349 0 3.67186 17.4672 0.221541 3.69245 
17.3832 0.354377 3.44281 17.6228 0.246613 3.47915 17.5934 0 2.5481 
17.7083 0 2.99403 17.6787 0.465499 2.74608 17.1982 0.467778 2.49528 
18.1999 0.375736 2.32535 18.5064 0 1.78707 17.8357 0 1.89263 
17.5142 0.465329 2.0114 17.2214 0.361059 1.79351 17.6896 0.359295 1.49581 
17.9172 0 1.08424 17.7403 0 0.535189 17.4276 0 0.357328 
17.4192 0 0.870214 17.4243 0.193982 0.613786 17.3503 0.361253 0.284699 
16.7798 0 0.36106 16.8678 0 0 16.6764 0.260383 0 
3.89259 11.5635 0 3.67297 11.7483 0 1.94692 2.2384 5.49561 
7.85668 5.30248 9.12387 7.4232 3.97177 16.0844 5.603 2.87455 17.4654 
6.38164 5.09211 17.9277 6.8304 6.51 21.8407 6.76873 5.63054 19.9273 
0.61669 11.7253 17.2436 0 11.3388 17.7139 0 12.4854 18.0458 
0.76139 12.538 16.3142 1.43499 10.4874 15.49 0 10.8796 15.8418 
0 12.8556 13.4622 0 13.4806 14.7388 0 12.602 15.4668 
0 11.855 16.1785 0 12.35 16.9578 0.37418 12.2932 17.5173 
0 12.7603 17.6711 0 12.4489 17.3756 0.286615 12.8047 17.3125 
0.462791 12.4312 17.0643 0 12.6982 17.096 0 13.5034 16.8386 
[...]
CELL_DATA 1695
FIELD FieldData 4
skewnessScalars 1 1695 double
-6.27744e+66 -6.27744e+66 -6.27744e+66 -6.27744e+66 -6.27744e+66 -6.27744e+66 -6.27744e+66 -6.27744e+66 -6.27744e+66 
-6.27744e+66 -6.27744e+66 -6.27744e+66 -6.27744e+66 -6.27744e+66 -6.27744e+66 -6.27744e+66 -6.27744e+66 -6.27744e+66 
-6.27744e+66 -6.27744e+66 -6.27744e+66 -6.27744e+66 -6.27744e+66 -6.27744e+66 -6.27744e+66 -6.27744e+66 -6.27744e+66 
-6.27744e+66 -6.27744e+66 -6.27744e+66 -6.27744e+66 -6.27744e+66 -6.27744e+66 -6.27744e+66 -6.27744e+66 -6.27744e+66 
-6.27744e+66 -6.27744e+66 -6.27744e+66 -6.27744e+66 -6.27744e+66 -6.27744e+66 -6.27744e+66 -6.27744e+66 -6.27744e+66 
-6.27744e+66 -6.27744e+66 -6.27744e+66 -6.27744e+66 -6.27744e+66 -6.27744e+66 -6.27744e+66 -6.27744e+66 -6.27744e+66 
-6.27744e+66 -6.27744e+66 -6.27744e+66 -6.27744e+66 -6.27744e+66 -6.27744e+66 -6.27744e+66 -6.27744e+66 -6.27744e+66 
-6.27744e+66 -6.27744e+66 -6.27744e+66 -6.27744e+66 -6.27744e+66 -6.27744e+66 -6.27744e+66 -6.27744e+66 -6.27744e+66 
-6.27744e+66 -6.27744e+66 -6.27744e+66 -6.27744e+66 -6.27744e+66 -6.27744e+66 -6.27744e+66 -6.27744e+66 -6.27744e+66 
-6.27744e+66 -6.27744e+66 -6.27744e+66 -6.27744e+66 -6.27744e+66 -6.27744e+66 -6.27744e+66 -6.27744e+66 -6.27744e+66 
-6.27744e+66 -6.27744e+66 -6.27744e+66 -6.27744e+66 -6.27744e+66 -6.27744e+66 -6.27744e+66 -6.27744e+66 -6.27744e+66 
-6.27744e+66 -6.27744e+66 -6.27744e+66 -6.27744e+66 -6.27744e+66 -6.27744e+66 -6.27744e+66 -6.27744e+66 -6.27744e+66 
-6.27744e+66 -6.27744e+66 -6.27744e+66 -6.27744e+66 -6.27744e+66 -6.27744e+66 -6.27744e+66 -6.27744e+66 -6.27744e+66 
-6.27744e+66 -6.27744e+66 -6.27744e+66 -6.27744e+66 -6.27744e+66 -6.27744e+66 -6.27744e+66 -6.27744e+66 -6.27744e+66 
-6.27744e+66 -6.27744e+66 -6.27744e+66 -6.27744e+66 -6.27744e+66 -6.27744e+66 -6.27744e+66 -6.27744e+66 -6.27744e+66 
-6.27744e+66 -6.27744e+66 -6.27744e+66 -6.27744e+66 -6.27744e+66 -6.27744e+66 -6.27744e+66 -6.27744e+66 -6.27744e+66 
-6.27744e+66 -6.27744e+66 -6.27744e+66 -6.27744e+66 -6.27744e+66 -6.27744e+66 -6.27744e+66 -6.27744e+66 -6.27744e+66 
-6.27744e+66 -6.27744e+66 -6.27744e+66 -6.27744e+66 -6.27744e+66 -6.27744e+66 -6.27744e+66 -6.27744e+66 -6.27744e+66 
-6.27744e+66 -6.27744e+66 -6.27744e+66 -6.27744e+66 -6.27744e+66 -6.27744e+66 -6.27744e+66 -6.27744e+66 -6.27744e+66 
-6.27744e+66 -6.27744e+66 -6.27744e+66 -6.27744e+66 -6.27744e+66 -6.27744e+66 -6.27744e+66 -6.27744e+66 -6.27744e+66 
-6.27744e+66 -6.27744e+66 -6.27744e+66 -6.27744e+66 -6.27744e+66 -6.27744e+66 -6.27744e+66 -6.27744e+66 -6.27744e+66 
-6.27744e+66 -6.27744e+66 -6.27744e+66 -6.27744e+66 -6.27744e+66 -6.27744e+66 -6.27744e+66 -6.27744e+66 -6.27744e+66 
-6.27744e+66 -6.27744e+66 -6.27744e+66 -6.27744e+66 -6.27744e+66 -6.27744e+66 -6.27744e+66 -6.27744e+66 -6.27744e+66 
-6.27744e+66 -6.27744e+66 -6.27744e+66 -6.27744e+66 -6.27744e+66 -6.27744e+66 -6.27744e+66 -6.27744e+66 -6.27744e+66 
-6.27744e+66 -6.27744e+66 -6.27744e+66 -6.27744e+66 -6.27744e+66 -6.27744e+66 -6.27744e+66 -6.27744e+66 -6.27744e+66 
-6.27744e+66 -6.27744e+66 -6.27744e+66 -6.27744e+66 -6.27744e+66 -6.27744e+66 -6.27744e+66 -6.27744e+66 -6.27744e+66 
-6.27744e+66 -6.27744e+66 -6.27744e+66 -6.27744e+66 -6.27744e+66 -6.27744e+66 -6.27744e+66 -6.27744e+66 -6.27744e+66 
-6.27744e+66 -6.27744e+66 -6.27744e+66 -6.27744e+66 -6.27744e+66 -6.27744e+66 -6.27744e+66 -6.27744e+66 -6.27744e+66 
-6.27744e+66 -6.27744e+66 -6.27744e+66 -6.27744e+66 -6.27744e+66 -6.27744e+66 -6.27744e+66 -6.27744e+66 -6.27744e+66 
-6.27744e+66 -6.27744e+66 -6.27744e+66 -6.27744e+66 -6.27744e+66 -6.27744e+66 -6.27744e+66 -6.27744e+66 -6.27744e+66 
-6.27744e+66 -6.27744e+66 -6.27744e+66 -6.27744e+66 -6.27744e+66 -6.27744e+66 -6.27744e+66 -6.27744e+66 -6.27744e+66 
-6.27744e+66 -6.27744e+66 -6.27744e+66 -6.27744e+66 -6.27744e+66 -6.27744e+66 -6.27744e+66 -6.27744e+66 -6.27744e+66 
-6.27744e+66 -6.27744e+66 -6.27744e+66 -6.27744e+66 -6.27744e+66 -6.27744e+66 -6.27744e+66 -6.27744e+66 -6.27744e+66 
-6.27744e+66 -6.27744e+66 -6.27744e+66 -6.27744e+66 -6.27744e+66 -6.27744e+66 -6.27744e+66 -6.27744e+66 -6.27744e+66 
-6.27744e+66 -6.27744e+66 -6.27744e+66 -6.27744e+66 -6.27744e+66 -6.27744e+66 -6.27744e+66 -6.27744e+66 -6.27744e+66 
-6.27744e+66 -6.27744e+66 -6.27744e+66 -6.27744e+66 -6.27744e+66 -6.27744e+66 -6.27744e+66 -6.27744e+66 -6.27744e+66 
-6.27744e+66 -6.27744e+66 -6.27744e+66 -6.27744e+66 -6.27744e+66 -6.27744e+66 -6.27744e+66 -6.27744e+66 -6.27744e+66 
-6.27744e+66 -6.27744e+66 -6.27744e+66 -6.27744e+66 -6.27744e+66 -6.27744e+66 -6.27744e+66 -6.27744e+66 -6.27744e+66 
-6.27744e+66 -6.27744e+66 -6.27744e+66 -6.27744e+66 -6.27744e+66 -6.27744e+66 -6.27744e+66 -6.27744e+66 -6.27744e+66 
-6.27744e+66 -6.27744e+66 -6.27744e+66 -6.27744e+66 -6.27744e+66 -6.27744e+66 -6.27744e+66 -6.27744e+66 -6.27744e+66 
-6.27744e+66 -6.27744e+66 -6.27744e+66 -6.27744e+66 -6.27744e+66 -6.27744e+66 -6.27744e+66 -6.27744e+66 -6.27744e+66 
-6.27744e+66 -6.27744e+66 -6.27744e+66 -6.27744e+66 -6.27744e+66 -6.27744e+66 -6.27744e+66 -6.27744e+66 -6.27744e+66 
-6.27744e+66 -6.27744e+66 -6.27744e+66 -6.27744e+66 -6.27744e+66 -6.27744e+66 -6.27744e+66 -6.27744e+66 -6.27744e+66 
-6.27744e+66 -6.27744e+66 -6.27744e+66 -6.27744e+66 -6.27744e+66 -6.27744e+66 -6.27744e+66 -6.27744e+66 -6.27744e+66 
-6.27744e+66 -6.27744e+66 -6.27744e+66 -6.27744e+66 -6.27744e+66 -6.27744e+66 -6.27744e+66 -6.27744e+66 -6.27744e+66 
-6.27744e+66 -6.27744e+66 -6.27744e+66 -6.27744e+66 -6.27744e+66 -6.27744e+66 -6.27744e+66 -6.27744e+66 -6.27744e+66 
-6.27744e+66 -6.27744e+66 -6.27744e+66 -6.27744e+66 -6.27744e+66 -6.27744e+66 -6.27744e+66 -6.27744e+66 -6.27744e+66 
-6.27744e+66 -6.27744e+66 -6.27744e+66 -6.27744e+66 -6.27744e+66 -6.27744e+66 -6.27744e+66 -6.27744e+66 -6.27744e+66 
-6.27744e+66 -6.27744e+66 -6.27744e+66 -6.27744e+66 -6.27744e+66 -6.27744e+66 -6.27744e+66 -6.27744e+66 -6.27744e+66 
-6.27744e+66 -6.27744e+66 -6.27744e+66 -6.27744e+66 -6.27744e+66 -6.27744e+66 -6.27744e+66 -6.27744e+66 -6.27744e+66 
-6.27744e+66 -6.27744e+66 -6.27744e+66 -6.27744e+66 -6.27744e+66 -6.27744e+66 -6.27744e+66 -6.27744e+66 -6.27744e+66 
-6.27744e+66 -6.27744e+66 -6.27744e+66 -6.27744e+66 -6.27744e+66 -6.27744e+66 -6.27744e+66 -6.27744e+66 -6.27744e+66 
-6.27744e+66 -6.27744e+66 -6.27744e+66 -6.27744e+66 -6.27744e+66 -6.27744e+66 -6.27744e+66 -6.27744e+66 -6.27744e+66 
-6.27744e+66 -6.27744e+66 -6.27744e+66 -6.27744e+66 -6.27744e+66 -6.27744e+66 -6.27744e+66 -6.27744e+66 -6.27744e+66 
-6.27744e+66 -6.27744e+66 -6.27744e+66 -6.27744e+66 -6.27744e+66 -6.27744e+66 -6.27744e+66 -6.27744e+66 -6.27744e+66 
-6.27744e+66 -6.27744e+66 -6.27744e+66 -6.27744e+66 -6.27744e+66 -6.27744e+66 -6.27744e+66 -6.27744e+66 -6.27744e+66 
-6.27744e+66 -6.27744e+66 -6.27744e+66 -6.27744e+66 -6.27744e+66 -6.27744e+66 -6.27744e+66 -6.27744e+66 -6.27744e+66 
-6.27744e+66 -6.27744e+66 -6.27744e+66 -6.27744e+66 -6.27744e+66 -6.27744e+66 -6.27744e+66 -6.27744e+66 -6.27744e+66 
-6.27744e+66 -6.27744e+66 -6.27744e+66 -6.27744e+66 -6.27744e+66 -6.27744e+66 -6.27744e+66 -6.27744e+66 -6.27744e+66 
-6.27744e+66 -6.27744e+66 -6.27744e+66 -6.27744e+66 -6.27744e+66 -6.27744e+66 -6.27744e+66 -6.27744e+66 -6.27744e+66 
-6.27744e+66 -6.27744e+66 -6.27744e+66 -6.27744e+66 -6.27744e+66 -6.27744e+66 -6.27744e+66 -6.27744e+66 -6.27744e+66 
-6.27744e+66 -6.27744e+66 -6.27744e+66 -6.27744e+66 -6.27744e+66 -6.27744e+66 -6.27744e+66 -6.27744e+66 -6.27744e+66 
-6.27744e+66 -6.27744e+66 -6.27744e+66 -6.27744e+66 -6.27744e+66 -6.27744e+66 -6.27744e+66 -6.27744e+66 -6.27744e+66 
-6.27744e+66 -6.27744e+66 -6.27744e+66 -6.27744e+66 -6.27744e+66 -6.27744e+66 -6.27744e+66 -6.27744e+66 -6.27744e+66 
-6.27744e+66 -6.27744e+66 -6.27744e+66 -6.27744e+66 -6.27744e+66 -6.27744e+66 -6.27744e+66 -6.27744e+66 -6.27744e+66 
-6.27744e+66 -6.27744e+66 -6.27744e+66 -6.27744e+66 -6.27744e+66 -6.27744e+66 -6.27744e+66 -6.27744e+66 -6.27744e+66 
-6.27744e+66 -6.27744e+66 -6.27744e+66 -6.27744e+66 -6.27744e+66 -6.27744e+66 -6.27744e+66 -6.27744e+66 -6.27744e+66 
-6.27744e+66 -6.27744e+66 -6.27744e+66 -6.27744e+66 -6.27744e+66 -6.27744e+66 -6.27744e+66 -6.27744e+66 -6.27744e+66 
-6.27744e+66 -6.27744e+66 -6.27744e+66 -6.27744e+66 -6.27744e+66 -6.27744e+66 -6.27744e+66 -6.27744e+66 -6.27744e+66 
-6.27744e+66 -6.27744e+66 -6.27744e+66 -6.27744e+66 -6.27744e+66 -6.27744e+66 -6.27744e+66 -6.27744e+66 -6.27744e+66 
-6.27744e+66 -6.27744e+66 -6.27744e+66 -6.27744e+66 -6.27744e+66 -6.27744e+66 -6.27744e+66 -6.27744e+66 -6.27744e+66 
-6.27744e+66 -6.27744e+66 -6.27744e+66 -6.27744e+66 -6.27744e+66 -6.27744e+66 -6.27744e+66 -6.27744e+66 -6.27744e+66 
-6.27744e+66 -6.27744e+66 -6.27744e+66 -6.27744e+66 -6.27744e+66 -6.27744e+66 -6.27744e+66 -6.27744e+66 -6.27744e+66 
-6.27744e+66 -6.27744e+66 -6.27744e+66 -6.27744e+66 -6.27744e+66 -6.27744e+66 -6.27744e+66 -6.27744e+66 -6.27744e+66 
-6.27744e+66 -6.27744e+66 -6.27744e+66 -6.27744e+66 -6.27744e+66 -6.27744e+66 -6.27744e+66 -6.27744e+66 -6.27744e+66 
-6.27744e+66 -6.27744e+66 -6.27744e+66 -6.27744e+66 -6.27744e+66 -6.27744e+66 -6.27744e+66 -6.27744e+66 -6.27744e+66 
-6.27744e+66 -6.27744e+66 -6.27744e+66 -6.27744e+66 -6.27744e+66 -6.27744e+66 -6.27744e+66 -6.27744e+66 -6.27744e+66 
-6.27744e+66 -6.27744e+66 -6.27744e+66 -6.27744e+66 -6.27744e+66 -6.27744e+66 -6.27744e+66 -6.27744e+66 -6.27744e+66 
-6.27744e+66 -6.27744e+66 -6.27744e+66 -6.27744e+66 -6.27744e+66 -6.27744e+66 -6.27744e+66 -6.27744e+66 -6.27744e+66 
-6.27744e+66 -6.27744e+66 -6.27744e+66 -6.27744e+66 -6.27744e+66 -6.27744e+66 -6.27744e+66 -6.27744e+66 -6.27744e+66 
-6.27744e+66 -6.27744e+66 -6.27744e+66 -6.27744e+66 -6.27744e+66 -6.27744e+66 -6.27744e+66 -6.27744e+66 -6.27744e+66 
-6.27744e+66 -6.27744e+66 -6.27744e+66 -6.27744e+66 -6.27744e+66 -6.27744e+66 -6.27744e+66 -6.27744e+66 -6.27744e+66 
-6.27744e+66 -6.27744e+66 -6.27744e+66 -6.27744e+66 -6.27744e+66 -6.27744e+66 -6.27744e+66 -6.27744e+66 -6.27744e+66 
-6.27744e+66 -6.27744e+66 -6.27744e+66 -6.27744e+66 -6.27744e+66 -6.27744e+66 -6.27744e+66 -6.27744e+66 -6.27744e+66 
-6.27744e+66 -6.27744e+66 -6.27744e+66 -6.27744e+66 -6.27744e+66 -6.27744e+66 -6.27744e+66 -6.27744e+66 -6.27744e+66 
-6.27744e+66 -6.27744e+66 -6.27744e+66 -6.27744e+66 -6.27744e+66 -6.27744e+66 -6.27744e+66 -6.27744e+66 -6.27744e+66 
-6.27744e+66 -6.27744e+66 -6.27744e+66 -6.27744e+66 -6.27744e+66 -6.27744e+66 -6.27744e+66 -6.27744e+66 -6.27744e+66 
-6.27744e+66 -6.27744e+66 -6.27744e+66 -6.27744e+66 -6.27744e+66 -6.27744e+66 -6.27744e+66 -6.27744e+66 -6.27744e+66 
-6.27744e+66 -6.27744e+66 -6.27744e+66 -6.27744e+66 -6.27744e+66 -6.27744e+66 -6.27744e+66 -6.27744e+66 -6.27744e+66 
-6.27744e+66 -6.27744e+66 -6.27744e+66 -6.27744e+66 -6.27744e+66 -6.27744e+66 -6.27744e+66 -6.27744e+66 -6.27744e+66 
-6.27744e+66 -6.27744e+66 -6.27744e+66 -6.27744e+66 -6.27744e+66 -6.27744e+66 -6.27744e+66 -6.27744e+66 -6.27744e+66 
-6.27744e+66 -6.27744e+66 -6.27744e+66 -6.27744e+66 -6.27744e+66 -6.27744e+66 -6.27744e+66 -6.27744e+66 -6.27744e+66 
-6.27744e+66 -6.27744e+66 -6.27744e+66 -6.27744e+66 -6.27744e+66 -6.27744e+66 -6.27744e+66 -6.27744e+66 -6.27744e+66 
-6.27744e+66 -6.27744e+66 -6.27744e+66 -6.27744e+66 -6.27744e+66 -6.27744e+66 -6.27744e+66 -6.27744e+66 -6.27744e+66 
-6.27744e+66 -6.27744e+66 -6.27744e+66 -6.27744e+66 -6.27744e+66 -6.27744e+66 -6.27744e+66 -6.27744e+66 -6.27744e+66 
-6.27744e+66 -6.27744e+66 -6.27744e+66 -6.27744e+66 -6.27744e+66 -6.27744e+66 -6.27744e+66 -6.27744e+66 -6.27744e+66 
-6.27744e+66 -6.27744e+66 -6.27744e+66 -6.27744e+66 -6.27744e+66 -6.27744e+66 -6.27744e+66 -6.27744e+66 -6.27744e+66 
-6.27744e+66 -6.27744e+66 -6.27744e+66 -6.27744e+66 -6.27744e+66 -6.27744e+66 -6.27744e+66 -6.27744e+66 -6.27744e+66 
-6.27744e+66 -6.27744e+66 -6.27744e+66 -6.27744e+66 -6.27744e+66 -6.27744e+66 -6.27744e+66 -6.27744e+66 -6.27744e+66 
-6.27744e+66 -6.27744e+66 -6.27744e+66 -6.27744e+66 -6.27744e+66 -6.27744e+66 -6.27744e+66 -6.27744e+66 -6.27744e+66 
-6.27744e+66 -6.27744e+66 -6.27744e+66 -6.27744e+66 -6.27744e+66 -6.27744e+66 -6.27744e+66 -6.27744e+66 -6.27744e+66 
-6.27744e+66 -6.27744e+66 -6.27744e+66 -6.27744e+66 -6.27744e+66 -6.27744e+66 -6.27744e+66 -6.27744e+66 -6.27744e+66 
-6.27744e+66 -6.27744e+66 -6.27744e+66 -6.27744e+66 -6.27744e+66 -6.27744e+66 -6.27744e+66 -6.27744e+66 -6.27744e+66 
-6.27744e+66 -6.27744e+66 -6.27744e+66 -6.27744e+66 -6.27744e+66 -6.27744e+66 -6.27744e+66 -6.27744e+66 -6.27744e+66 
-6.27744e+66 -6.27744e+66 -6.27744e+66 -6.27744e+66 -6.27744e+66 -6.27744e+66 -6.27744e+66 -6.27744e+66 -6.27744e+66 
-6.27744e+66 -6.27744e+66 -6.27744e+66 -6.27744e+66 -6.27744e+66 -6.27744e+66 -6.27744e+66 -6.27744e+66 -6.27744e+66 
-6.27744e+66 -6.27744e+66 -6.27744e+66 -6.27744e+66 -6.27744e+66 -6.27744e+66 -6.27744e+66 -6.27744e+66 -6.27744e+66 
-6.27744e+66 -6.27744e+66 -6.27744e+66 -6.27744e+66 -6.27744e+66 -6.27744e+66 -6.27744e+66 -6.27744e+66 -6.27744e+66 
-6.27744e+66 -6.27744e+66 -6.27744e+66 -6.27744e+66 -6.27744e+66 -6.27744e+66 -6.27744e+66 -6.27744e+66 -6.27744e+66 
-6.27744e+66 -6.27744e+66 -6.27744e+66 -6.27744e+66 -6.27744e+66 -6.27744e+66 -6.27744e+66 -6.27744e+66 -6.27744e+66 
-6.27744e+66 -6.27744e+66 -6.27744e+66 -6.27744e+66 -6.27744e+66 -6.27744e+66 -6.27744e+66 -6.27744e+66 -6.27744e+66 
-6.27744e+66 -6.27744e+66 -6.27744e+66 -6.27744e+66 -6.27744e+66 -6.27744e+66 -6.27744e+66 -6.27744e+66 -6.27744e+66 
-6.27744e+66 -6.27744e+66 -6.27744e+66 -6.27744e+66 -6.27744e+66 -6.27744e+66 -6.27744e+66 -6.27744e+66 -6.27744e+66 
-6.27744e+66 -6.27744e+66 -6.27744e+66 -6.27744e+66 -6.27744e+66 -6.27744e+66 -6.27744e+66 -6.27744e+66 -6.27744e+66 
-6.27744e+66 -6.27744e+66 -6.27744e+66 -6.27744e+66 -6.27744e+66 -6.27744e+66 -6.27744e+66 -6.27744e+66 -6.27744e+66 
-6.27744e+66 -6.27744e+66 -6.27744e+66 -6.27744e+66 -6.27744e+66 -6.27744e+66 -6.27744e+66 -6.27744e+66 -6.27744e+66 
-6.27744e+66 -6.27744e+66 -6.27744e+66 -6.27744e+66 -6.27744e+66 -6.27744e+66 -6.27744e+66 -6.27744e+66 -6.27744e+66 
-6.27744e+66 -6.27744e+66 -6.27744e+66 -6.27744e+66 -6.27744e+66 -6.27744e+66 -6.27744e+66 -6.27744e+66 -6.27744e+66 
-6.27744e+66 -6.27744e+66 -6.27744e+66 -6.27744e+66 -6.27744e+66 -6.27744e+66 -6.27744e+66 -6.27744e+66 -6.27744e+66 
-6.27744e+66 -6.27744e+66 -6.27744e+66 -6.27744e+66 -6.27744e+66 -6.27744e+66 -6.27744e+66 -6.27744e+66 -6.27744e+66 
-6.27744e+66 -6.27744e+66 -6.27744e+66 -6.27744e+66 -6.27744e+66 -6.27744e+66 -6.27744e+66 -6.27744e+66 -6.27744e+66 
-6.27744e+66 -6.27744e+66 -6.27744e+66 -6.27744e+66 -6.27744e+66 -6.27744e+66 -6.27744e+66 -6.27744e+66 -6.27744e+66 
-6.27744e+66 -6.27744e+66 -6.27744e+66 -6.27744e+66 -6.27744e+66 -6.27744e+66 -6.27744e+66 -6.27744e+66 -6.27744e+66 
-6.27744e+66 -6.27744e+66 -6.27744e+66 -6.27744e+66 -6.27744e+66 -6.27744e+66 -6.27744e+66 -6.27744e+66 -6.27744e+66 
-6.27744e+66 -6.27744e+66 -6.27744e+66 -6.27744e+66 -6.27744e+66 -6.27744e+66 -6.27744e+66 -6.27744e+66 -6.27744e+66 
-6.27744e+66 -6.27744e+66 -6.27744e+66 -6.27744e+66 -6.27744e+66 -6.27744e+66 -6.27744e+66 -6.27744e+66 -6.27744e+66 
-6.27744e+66 -6.27744e+66 -6.27744e+66 -6.27744e+66 -6.27744e+66 -6.27744e+66 -6.27744e+66 -6.27744e+66 -6.27744e+66 
-6.27744e+66 -6.27744e+66 -6.27744e+66 -6.27744e+66 -6.27744e+66 -6.27744e+66 -6.27744e+66 -6.27744e+66 -6.27744e+66 
-6.27744e+66 -6.27744e+66 -6.27744e+66 -6.27744e+66 -6.27744e+66 -6.27744e+66 -6.27744e+66 -6.27744e+66 -6.27744e+66 
-6.27744e+66 -6.27744e+66 -6.27744e+66 -6.27744e+66 -6.27744e+66 -6.27744e+66 -6.27744e+66 -6.27744e+66 -6.27744e+66 
-6.27744e+66 -6.27744e+66 -6.27744e+66 -6.27744e+66 -6.27744e+66 -6.27744e+66 -6.27744e+66 -6.27744e+66 -6.27744e+66 
-6.27744e+66 -6.27744e+66 -6.27744e+66 -6.27744e+66 -6.27744e+66 -6.27744e+66 -6.27744e+66 -6.27744e+66 -6.27744e+66 
-6.27744e+66 -6.27744e+66 -6.27744e+66 -6.27744e+66 -6.27744e+66 -6.27744e+66 -6.27744e+66 -6.27744e+66 -6.27744e+66 
-6.27744e+66 -6.27744e+66 -6.27744e+66 -6.27744e+66 -6.27744e+66 -6.27744e+66 -6.27744e+66 -6.27744e+66 -6.27744e+66 
-6.27744e+66 -6.27744e+66 -6.27744e+66 -6.27744e+66 -6.27744e+66 -6.27744e+66 -6.27744e+66 -6.27744e+66 -6.27744e+66 
-6.27744e+66 -6.27744e+66 -6.27744e+66 -6.27744e+66 -6.27744e+66 -6.27744e+66 -6.27744e+66 -6.27744e+66 -6.27744e+66 
-6.27744e+66 -6.27744e+66 -6.27744e+66 -6.27744e+66 -6.27744e+66 -6.27744e+66 -6.27744e+66 -6.27744e+66 -6.27744e+66 
-6.27744e+66 -6.27744e+66 -6.27744e+66 -6.27744e+66 -6.27744e+66 -6.27744e+66 -6.27744e+66 -6.27744e+66 -6.27744e+66 
-6.27744e+66 -6.27744e+66 -6.27744e+66 -6.27744e+66 -6.27744e+66 -6.27744e+66 -6.27744e+66 -6.27744e+66 -6.27744e+66 
-6.27744e+66 -6.27744e+66 -6.27744e+66 -6.27744e+66 -6.27744e+66 -6.27744e+66 -6.27744e+66 -6.27744e+66 -6.27744e+66 
-6.27744e+66 -6.27744e+66 -6.27744e+66 -6.27744e+66 -6.27744e+66 -6.27744e+66 -6.27744e+66 -6.27744e+66 -6.27744e+66 
-6.27744e+66 -6.27744e+66 -6.27744e+66 -6.27744e+66 -6.27744e+66 -6.27744e+66 -6.27744e+66 -6.27744e+66 -6.27744e+66 
-6.27744e+66 -6.27744e+66 -6.27744e+66 -6.27744e+66 -6.27744e+66 -6.27744e+66 -6.27744e+66 -6.27744e+66 -6.27744e+66 
-6.27744e+66 -6.27744e+66 -6.27744e+66 -6.27744e+66 -6.27744e+66 -6.27744e+66 -6.27744e+66 -6.27744e+66 -6.27744e+66 
-6.27744e+66 -6.27744e+66 -6.27744e+66 -6.27744e+66 -6.27744e+66 -6.27744e+66 -6.27744e+66 -6.27744e+66 -6.27744e+66 
-6.27744e+66 -6.27744e+66 -6.27744e+66 -6.27744e+66 -6.27744e+66 -6.27744e+66 -6.27744e+66 -6.27744e+66 -6.27744e+66 
-6.27744e+66 -6.27744e+66 -6.27744e+66 -6.27744e+66 -6.27744e+66 -6.27744e+66 -6.27744e+66 -6.27744e+66 -6.27744e+66 
-6.27744e+66 -6.27744e+66 -6.27744e+66 -6.27744e+66 -6.27744e+66 -6.27744e+66 -6.27744e+66 -6.27744e+66 -6.27744e+66 
-6.27744e+66 -6.27744e+66 -6.27744e+66 -6.27744e+66 -6.27744e+66 -6.27744e+66 -6.27744e+66 -6.27744e+66 -6.27744e+66 
-6.27744e+66 -6.27744e+66 -6.27744e+66 -6.27744e+66 -6.27744e+66 -6.27744e+66 -6.27744e+66 -6.27744e+66 -6.27744e+66 
-6.27744e+66 -6.27744e+66 -6.27744e+66 -6.27744e+66 -6.27744e+66 -6.27744e+66 -6.27744e+66 -6.27744e+66 -6.27744e+66 
-6.27744e+66 -6.27744e+66 -6.27744e+66 -6.27744e+66 -6.27744e+66 -6.27744e+66 -6.27744e+66 -6.27744e+66 -6.27744e+66 
-6.27744e+66 -6.27744e+66 -6.27744e+66 -6.27744e+66 -6.27744e+66 -6.27744e+66 -6.27744e+66 -6.27744e+66 -6.27744e+66 
-6.27744e+66 -6.27744e+66 -6.27744e+66 -6.27744e+66 -6.27744e+66 -6.27744e+66 -6.27744e+66 -6.27744e+66 -6.27744e+66 
-6.27744e+66 -6.27744e+66 -6.27744e+66 -6.27744e+66 -6.27744e+66 -6.27744e+66 -6.27744e+66 -6.27744e+66 -6.27744e+66 
-6.27744e+66 -6.27744e+66 -6.27744e+66 -6.27744e+66 -6.27744e+66 -6.27744e+66 -6.27744e+66 -6.27744e+66 -6.27744e+66 
-6.27744e+66 -6.27744e+66 -6.27744e+66 -6.27744e+66 -6.27744e+66 -6.27744e+66 -6.27744e+66 -6.27744e+66 -6.27744e+66 
-6.27744e+66 -6.27744e+66 -6.27744e+66 -6.27744e+66 -6.27744e+66 -6.27744e+66 -6.27744e+66 -6.27744e+66 -6.27744e+66 
-6.27744e+66 -6.27744e+66 -6.27744e+66 -6.27744e+66 -6.27744e+66 -6.27744e+66 -6.27744e+66 -6.27744e+66 -6.27744e+66 
-6.27744e+66 -6.27744e+66 -6.27744e+66 -6.27744e+66 -6.27744e+66 -6.27744e+66 -6.27744e+66 -6.27744e+66 -6.27744e+66 
-6.27744e+66 -6.27744e+66 -6.27744e+66 -6.27744e+66 -6.27744e+66 -6.27744e+66 -6.27744e+66 -6.27744e+66 -6.27744e+66 
-6.27744e+66 -6.27744e+66 -6.27744e+66 -6.27744e+66 -6.27744e+66 -6.27744e+66 -6.27744e+66 -6.27744e+66 -6.27744e+66 
-6.27744e+66 -6.27744e+66 -6.27744e+66 -6.27744e+66 -6.27744e+66 -6.27744e+66 -6.27744e+66 -6.27744e+66 -6.27744e+66 
-6.27744e+66 -6.27744e+66 -6.27744e+66 -6.27744e+66 -6.27744e+66 -6.27744e+66 -6.27744e+66 -6.27744e+66 -6.27744e+66 
-6.27744e+66 -6.27744e+66 -6.27744e+66 -6.27744e+66 -6.27744e+66 -6.27744e+66 -6.27744e+66 -6.27744e+66 -6.27744e+66 
-6.27744e+66 -6.27744e+66 -6.27744e+66 -6.27744e+66 -6.27744e+66 -6.27744e+66 -6.27744e+66 -6.27744e+66 -6.27744e+66 
-6.27744e+66 -6.27744e+66 -6.27744e+66 -6.27744e+66 -6.27744e+66 -6.27744e+66 -6.27744e+66 -6.27744e+66 -6.27744e+66 
-6.27744e+66 -6.27744e+66 -6.27744e+66 -6.27744e+66 -6.27744e+66 -6.27744e+66 -6.27744e+66 -6.27744e+66 -6.27744e+66 