# vtk DataFile Version 3.0
vtk output
ASCII
DATASET UNSTRUCTURED_GRID
POINTS 2957 float
0 46.4851 50 47.5385 50 50 17.54 0 50 
0 50 1.52449 50 50 28.5598 50 0 25.4615 
0 47.4636 0 50 5.46085 0 0 0 0 
50 0 0 50 50 0 50 13.5355 0 
50 0 28.5355 0 50 32.4645 42.4609 50 50 
50 15.4594 50 50 50 45.4448 0 0 9.48544 
0 50 0 0 0 50 50 0 50 
50 50 50 0 50 50 2.51456 50 0 
0 0 20.5376 50 50 26.4402 50 50 47.5552 
11.456 0 50 50 26.5422 50 14.5406 50 50 
12.0416 28.5045 50 0 24.5251 28.2114 0 12.5428 23.4789 
0 12.4701 10.9261 11.532 11.0216 0 11.0329 0 4.51099 
29.7775 0 16.3607 19.795 0 11.4011 18.5201 0 26.4932 
33.6793 0 36.4659 33.6251 10.4777 50 38.8457 21.5341 50 
43.5147 26.0608 50 46.2321 33.3786 50 50 35.6058 34.8948 
50 18.6195 27.1433 50 9.56587 23.4667 50 11.9693 30.5336 
50 19.6117 39.2095 50 19.2598 45.2683 50 21.3638 50 
50 20.4702 42.299 46.6433 27.8383 50 44.4781 28.0072 50 
50 30.9987 43.5168 50 26.6421 33.4688 50 32.6178 24.7919 
50 28.8364 28.5838 50 17.6817 33.2943 50 6.75904 28.3635 
50 3.35615 27.5313 39.9132 0 28.5361 42.563 0 19.1461 
37.1011 0 13.4806 43.5456 0 12.7332 38.5674 0 17.5325 
33.4609 0 29.879 14.4407 0 38.0821 10.9266 0 43.5347 
0 4.47195 37.5342 0 7.53118 29.946 0 13.6406 36.8198 
0 18.19 31.3867 0 17.4831 25.9212 0 23.1854 20.3589 
0 38.5407 14.0148 0 44.5107 7.99016 0 46.8808 4.43932 
0 47.7043 2.28952 0 48.3493 3.76924 0 47.3375 3.49595 
6.5373 35.1771 0 8.51263 43.6705 0 28.3544 41.785 0 
37.6183 50 9.47915 31.5325 50 26.9217 20.5351 50 36.6191 
15.7774 50 42.5209 13.0451 50 35.4496 9.32658 50 21.7031 
22.0225 50 17.534 19.4822 50 26.9365 24.277 50 31.3137 
29.3605 50 31.5225 37.3038 50 39.7736 43.4638 50 43.0302 
41.9461 50 38.4466 42.5152 50 40.8013 39.6653 50 41.5253 
47.3007 50 42.6978 50 46.6657 42.7451 41.0371 50 29.4823 
45.0056 50 26.4501 47.5028 50 26.4463 46.2574 50 28.5499 
44.5589 50 28.1394 43.5159 50 26.9598 35.9443 50 29.4659 
33.0038 50 29.4677 32.4705 50 32.7796 26.898 50 29.4883 
27.4659 50 25.0461 31.4196 50 21.82 27.4979 50 17.9739 
35.5474 24.879 0 37.5068 35.6958 0 28.4593 32.0199 0 
27.5336 36.8931 0 24.5544 39.9078 0 5.40262 39.9174 0 
8.52466 40.4954 0 5.47192 43.0251 0 6.74185 44.5276 0 
0 37.9772 7.48616 0 41.3418 6.47044 0 35.4794 10.9903 
0 34.0116 15.5376 0 33.5473 12.8772 0 28.3558 15.1538 
0 26.7548 18.734 0 25.4823 16.0169 0 24.4761 18.1446 
0 28.8523 17.5239 0 33.746 22.5413 0 36.0691 37.4861 
0 43.9226 41.5411 0 50 43.5874 5.71963 50 37.4659 
5.87248 50 31.5199 2.47938 50 24.8099 3.79561 50 18.612 
9.17542 50 15.4796 10.5262 50 18.5604 11.5218 50 16.2874 
0 36.8657 16.5296 0 37.5256 20.6873 0 34.7007 19.708 
0 36.089 22.5381 0 42.4905 33.4659 9.66011 50 37.4668 
19.1914 50 40.4045 15.1622 50 30.3602 16.4728 50 27.5766 
10.374 50 29.7919 8.57478 50 25.9127 10.4581 50 24.0771 
7.53154 50 28.7534 8.50078 50 30.5099 7.0029 50 30.5368 
9.57353 50 30.5061 8.27696 50 29.4878 9.32164 50 29.4922 
6.66802 50 26.8244 2.03392 50 21.4766 2.48301 50 29.021 
3.46748 50 26.9146 3.02313 50 32.5324 2.53463 50 36.0031 
0 50 39.3717 0 50 36.7338 0 38.527 15.8209 
21.5332 50 33.3508 25.0657 23.566 50 17.4583 13.0107 50 
5.88995 10.4577 50 4.46589 4.37227 50 9.53419 6.3956 50 
12.255 3.72663 50 17.6675 5.79159 50 19.8515 9.46746 50 
26.8397 8.58933 50 29.9776 10.449 50 25.5054 0 33.4398 
22.392 0 41.5264 28.722 0 40.527 35.3028 0 43.5039 
36.9201 0 39.4245 37.5565 0 35.4732 36.4471 0 28.0545 
38.5031 0 25.9717 40.8298 0 26.3622 43.605 0 23.2126 
48.1275 0 20.5695 50 4.80952 21.3252 50 2.1158 20.4664 
46.8707 0 23.6096 44.8624 0 26.4995 43.2172 0 29.5331 
50 14.5856 24.0911 46.4742 9.49818 0 50 9.01909 3.51215 
50 9.35917 0 50 14.1417 5.43948 39.7786 29.6984 0 
43.5842 22.0902 0 38.625 20.7733 0 41.3573 20.4799 0 
47.0526 12.5513 0 47.5498 6.87933 0 42.9896 26.5487 0 
45.8091 24.6558 0 45.3695 22.7894 0 36.5069 44.1157 0 
35.7168 39.7526 0 31.0408 27.494 0 28.4821 29.0337 0 
10.7298 23.4499 0 8.53329 17.0681 0 0.453866 10.4403 0 
0 8.46039 6.00997 0 14.1094 5.49575 0 11.7086 7.7336 
0 8.67686 9.52452 0 4.33841 9.50944 1.49942 0 15.0115 
0 1.08206 12.4519 0 0 13.9422 0.502419 0 12.8042 
0 0.501686 13.2623 0 0.501686 13.7873 0 1.51924 15.8375 
1.10469 0 17.4662 2.15406 0 19.578 0 6.51233 23.981 
0 4.50409 19.8992 0 0 16.3179 0 0 17.4234 
1.30177 0 18.6849 0 0 19.1539 0 0 18.2887 
0.720929 0 18.2566 0 0 15.13 0.82339 0 14.3735 
0.50289 0 13.9838 0.50113 0 13.394 0 0 13.326 
0 0 12.8233 0.512264 0 11.1053 0 1.50057 10.3764 
0 0 10.3764 0.469296 0 9.93091 0.508509 0 10.4422 
0 0 10.9208 0 0 11.7243 0.512264 0 11.6268 
25.6379 0 12.1668 28.285 0 13.6939 26.0256 0 14.5526 
26.8859 0 13.4144 27.1508 0 14.5089 23.296 0 13.7718 
22.5717 0 11.0709 21.0941 0 10.4855 21.4 0 11.871 
19.4162 0 9.48423 6.2167 6.46746 0 10.8209 6.47273 0 
12.3862 15.2121 0 0 25.4154 20.5246 0 24.2297 21.3941 
0 23.0815 21.5081 15.4129 0 31.9119 16.4668 0 35.2396 
10.4717 0 25.4783 0 9.36494 21.777 22.7012 0 29.2742 
21.3528 0 26.7678 22.2022 35.6574 50 16.5703 41.8666 50 
7.2703 50 50 3.63515 50 50 2.56854 47.4659 50 
5.59932 47.4715 50 9.8576 46.4738 50 13.2739 44.2576 50 
15.7355 46.7255 50 17.5247 44.5317 50 18.3302 42.7398 50 
19.711 28.6827 50 15.9469 25.5535 50 11.3462 23.5247 50 
8.46747 17.0541 50 10.8059 12.3386 50 8.47009 14.1179 50 
13.9503 14.4745 50 6.68424 21.7232 50 8.66875 23.5206 50 
10.009 22.5449 50 0 9.31737 40.528 0 4.07857 43.5889 
0 3.0029 40.4788 0 2.06275 42.545 5.05122 0 45.4397 
7.67413 0 48.5337 4.7515 0 48.3526 6.11633 1.40284 50 
7.35659 0.447432 50 14.4853 6.0067 50 16.5202 0 44.4281 
18.8079 0 41.6654 17.4762 10.4429 50 3.47775 7.81286 50 
0 7.52627 43.4761 0 5.83495 44.5268 14.5267 27.7336 50 
20.0654 22.5367 50 32.0914 23.4702 50 34.6182 19.5358 50 
32.5298 20.9731 50 33.0799 19.5366 50 29.5372 0 36.4659 
35.5618 0 29.9615 34.8192 0 28.4578 38.1442 0 28.554 
28.6331 27.5206 50 25.8607 26.4352 50 23.5303 31.2508 50 
20.1716 32.6419 50 22.3991 28.809 50 24.4945 33.9448 50 
23.9246 35.5724 50 44.9997 48.4785 50 43.4675 50 46.5878 
44.1862 50 50 43.2791 48.4865 50 46.7204 48.4861 50 
50 48.4851 46.5 28.7774 50 22.6176 42.2371 22.7073 50 
50 41.3233 25.464 50 43.536 32.9697 50 45.6039 26.4659 
50 47.8019 26.4463 50 46.7234 28.7611 38.4875 50 30.4693 
42.6439 50 33.8476 43.5126 50 31.0495 13.5341 50 45.9917 
0 10.5415 6.01052 2.7671 7.62968 0 2.4777 36.7113 0 
3.42562 33.0815 0 6.54178 31.8125 0 45.5478 0 19.0657 
43.5341 0 16.0132 44.0951 0 20.5798 45.1057 0 24.4978 
45.3209 3.49681 22.7278 41.5148 7.58848 17.1042 29.8975 12.9003 14.5425 
16.9342 20.0931 23.4746 15.3239 33.7683 32.2828 13.0129 41.4702 28.0139 
5.63638 41.1674 24.9971 5.10998 45.1972 28.3675 4.40076 45.1387 33.4541 
6.38545 37.141 32.2485 7.74421 27.2316 34.2853 9.0754 34.1623 41.5392 
9.06134 41.505 44.0799 17.1962 38.235 41.6946 17.5049 44.2833 41.4958 
20.1351 42.8423 34.7104 27.6882 35.3899 24.6571 25.3073 26.4323 13.7529 
17.7536 31.1915 20.8839 12.0095 38.3899 13.1227 6.8209 39.4955 18.0515 
3.62116 42.1137 14.9449 4.01185 38.1224 15.4832 6.53247 36.7278 9.23785 
2.91148 33.5842 6.99709 5.52472 30.0369 11.9297 9.90964 20.1633 10.3757 
18.7168 19.4886 14.0823 22.5118 22.7499 19.4774 26.199 13.6453 25.3439 
31.4483 9.52204 33.1422 37.1059 7.19487 37.4275 41.9677 12.4586 50 
38.0356 10.4604 50 41.0052 9.48476 50 35.8343 11.4654 50 
32.9365 14.9821 42.577 28.5778 23.4679 40.9901 24.0288 16.2943 44.485 
27.2213 16.5208 37.0352 32.9128 14.3938 36.5065 24.3847 8.15928 38.4551 
29.1333 5.19866 38.4972 31.6082 3.19698 36.404 33.4323 5.79488 39.5433 
35.8163 6.89126 45.287 37.7072 12.3183 44.5172 43.1571 17.0586 44.5596 
45.7941 14.4669 50 38.2048 30.7481 36.5442 38.9974 37.5183 26.9848 
38.8106 44.0996 27.5175 43.8493 44.7437 25.5025 43.9053 37.7166 15.4656 
41.7714 24.1994 17.5185 35.2623 20.743 9.98669 30.6027 20.8422 16.8576 
37.9123 15.746 17.2262 44.6362 13.8102 19.2321 40.8257 19.2914 24.0881 
46.5102 24.3464 23.4967 42.7223 26.0846 30.283 50 22.3147 30.7069 
50 25.4947 39.2388 42.4278 30.0099 42.8944 44.1629 26.9516 45.6626 
45.6783 29.4313 47.2576 50 33.5313 39.3282 42.4115 38.3573 38.8843 
44.3905 43.8641 41.4719 45.6417 47.4657 39.8981 46.5688 46.1258 42.9742 
45.7322 43.4842 36.2638 36.3892 40.1902 34.0138 35.4495 31.069 20.5099 
25.0879 29.7059 20.5273 30.138 31.3197 15.7294 30.4997 28.8604 7.99246 
38.9691 28.2117 8.33061 37.6983 33.6047 13.6315 44.6365 30.2502 13.7007 
43.6138 24.1446 11.0353 44.5498 28.9329 8.22974 42.7302 24.274 5.31627 
45.5701 27.346 3.61818 34.7474 31.2216 3.63556 32.626 31.3973 0 
31.9166 29.4119 2.75891 32.9187 29.6571 5.89366 29.7596 36.6323 7.49506 
22.861 35.2549 5.41335 23.1958 41.1371 13.339 17.734 38.805 18.6154 
12.0114 35.5551 19.08 10.8226 32.4166 13.9338 8.32457 36.2241 15.0488 
9.78743 35.5035 11.3316 9.9754 25.5029 14.9655 6.96141 17.8426 18.5191 
5.21331 22.8788 16.5813 5.23377 27.9488 18.3807 2.71532 22.7818 18.6404 
6.48109 21.5651 25.0683 7.97727 13.0281 29.4274 12.0408 6.46686 29.3874 
19.6428 11.2111 31.247 25.8653 11.437 31.1569 28.0899 4.96091 28.4205 
35.0702 5.18195 32.3159 37.5737 3.05904 30.58 41.5514 3.99613 29.0804 
40.7625 2.14836 27.614 42.844 0 26.4932 43.7969 2.42969 27.9191 
44.6901 4.45657 18.2647 44.3053 0 17.6949 43.7692 2.18341 18.8228 
43.795 0.724925 18.8537 46.1134 1.62157 21.0599 46.6327 0 20.1692 
47.5395 0 22.1062 45.5194 0 22.108 44.8452 1.71358 22.4303 
43.373 0 19.816 44.9687 1.34763 19.8707 44.7349 0.593714 19.2258 
44.88 0 18.4225 44.2171 1.93202 16.7177 47.3098 7.89847 11.2347 
45.5 10.7771 6.61081 45.9295 7.74411 3.75997 48.1163 8.43914 6.42111 
45.076 3.57469 7.8701 47.5054 4.95259 5.51388 45.4627 6.76088 7.29871 
44.3509 5.82998 10.6553 47.5362 7.38715 8.71047 48.3533 11.1216 9.17367 
45.1504 12.5952 13.6715 39.5896 11.664 13.7168 34.8067 11.1747 16.5296 
36.5792 13.679 14.4638 40.4908 12.0525 18.2251 39.1646 12.5021 29.5082 
38.6908 21.5558 37.2445 37.5179 26.4248 41.1206 33.3429 23.9101 44.3218 
31.5577 22.0895 46.7813 32.4953 20.1363 47.7705 33.8468 15.2928 50 
[...]
CELL_DATA 6909
FIELD FieldData 4
skewnessScalars 1 6909 double
-6.27744e+66 -6.27744e+66 -6.27744e+66 -6.27744e+66 -6.27744e+66 -6.27744e+66 -6.27744e+66 -6.27744e+66 -6.27744e+66 
-6.27744e+66 -6.27744e+66 -6.27744e+66 -6.27744e+66 -6.27744e+66 -6.27744e+66 -6.27744e+66 -6.27744e+66 -6.27744e+66 
-6.27744e+66 -6.27744e+66 -6.27744e+66 -6.27744e+66 -6.27744e+66 -6.27744e+66 -6.27744e+66 -6.27744e+66 -6.27744e+66 
-6.27744e+66 -6.27744e+66 -6.27744e+66 -6.27744e+66 -6.27744e+66 -6.27744e+66 -6.27744e+66 -6.27744e+66 -6.27744e+66 
-6.27744e+66 -6.27744e+66 -6.27744e+66 -6.27744e+66 -6.27744e+66 -6.27744e+66 -6.27744e+66 -6.27744e+66 -6.27744e+66 
-6.27744e+66 -6.27744e+66 -6.27744e+66 -6.27744e+66 -6.27744e+66 -6.27744e+66 -6.27744e+66 -6.27744e+66 -6.27744e+66 
-6.27744e+66 -6.27744e+66 -6.27744e+66 -6.27744e+66 -6.27744e+66 -6.27744e+66 -6.27744e+66 -6.27744e+66 -6.27744e+66 
-6.27744e+66 -6.27744e+66 -6.27744e+66 -6.27744e+66 -6.27744e+66 -6.27744e+66 -6.27744e+66 -6.27744e+66 -6.27744e+66 
-6.27744e+66 -6.27744e+66 -6.27744e+66 -6.27744e+66 -6.27744e+66 -6.27744e+66 -6.27744e+66 -6.27744e+66 -6.27744e+66 
-6.27744e+66 -6.27744e+66 -6.27744e+66 -6.27744e+66 -6.27744e+66 -6.27744e+66 -6.27744e+66 -6.27744e+66 -6.27744e+66 
-6.27744e+66 -6.27744e+66 -6.27744e+66 -6.27744e+66 -6.27744e+66 -6.27744e+66 -6.27744e+66 -6.27744e+66 -6.27744e+66 
-6.27744e+66 -6.27744e+66 -6.27744e+66 -6.27744e+66 -6.27744e+66 -6.27744e+66 -6.27744e+66 -6.27744e+66 -6.27744e+66 
-6.27744e+66 -6.27744e+66 -6.27744e+66 -6.27744e+66 -6.27744e+66 -6.27744e+66 -6.27744e+66 -6.27744e+66 -6.27744e+66 
-6.27744e+66 -6.27744e+66 -6.27744e+66 -6.27744e+66 -6.27744e+66 -6.27744e+66 -6.27744e+66 -6.27744e+66 -6.27744e+66 
-6.27744e+66 -6.27744e+66 -6.27744e+66 -6.27744e+66 -6.27744e+66 -6.27744e+66 -6.27744e+66 -6.27744e+66 -6.27744e+66 
-6.27744e+66 -6.27744e+66 -6.27744e+66 -6.27744e+66 -6.27744e+66 -6.27744e+66 -6.27744e+66 -6.27744e+66 -6.27744e+66 
-6.27744e+66 -6.27744e+66 -6.27744e+66 -6.27744e+66 -6.27744e+66 -6.27744e+66 -6.27744e+66 -6.27744e+66 -6.27744e+66 
-6.27744e+66 -6.27744e+66 -6.27744e+66 -6.27744e+66 -6.27744e+66 -6.27744e+66 -6.27744e+66 -6.27744e+66 -6.27744e+66 
-6.27744e+66 -6.27744e+66 -6.27744e+66 -6.27744e+66 -6.27744e+66 -6.27744e+66 -6.27744e+66 -6.27744e+66 -6.27744e+66 
-6.27744e+66 -6.27744e+66 -6.27744e+66 -6.27744e+66 -6.27744e+66 -6.27744e+66 -6.27744e+66 -6.27744e+66 -6.27744e+66 
-6.27744e+66 -6.27744e+66 -6.27744e+66 -6.27744e+66 -6.27744e+66 -6.27744e+66 -6.27744e+66 -6.27744e+66 -6.27744e+66 
-6.27744e+66 -6.27744e+66 -6.27744e+66 -6.27744e+66 -6.27744e+66 -6.27744e+66 -6.27744e+66 -6.27744e+66 -6.27744e+66 
-6.27744e+66 -6.27744e+66 -6.27744e+66 -6.27744e+66 -6.27744e+66 -6.27744e+66 -6.27744e+66 -6.27744e+66 -6.27744e+66 
-6.27744e+66 -6.27744e+66 -6.27744e+66 -6.27744e+66 -6.27744e+66 -6.27744e+66 -6.27744e+66 -6.27744e+66 -6.27744e+66 
-6.27744e+66 -6.27744e+66 -6.27744e+66 -6.27744e+66 -6.27744e+66 -6.27744e+66 -6.27744e+66 -6.27744e+66 -6.27744e+66 
-6.27744e+66 -6.27744e+66 -6.27744e+66 -6.27744e+66 -6.27744e+66 -6.27744e+66 -6.27744e+66 -6.27744e+66 -6.27744e+66 
-6.27744e+66 -6.27744e+66 -6.27744e+66 -6.27744e+66 -6.27744e+66 -6.27744e+66 -6.27744e+66 -6.27744e+66 -6.27744e+66 
-6.27744e+66 -6.27744e+66 -6.27744e+66 -6.27744e+66 -6.27744e+66 -6.27744e+66 -6.27744e+66 -6.27744e+66 -6.27744e+66 
-6.27744e+66 -6.27744e+66 -6.27744e+66 -6.27744e+66 -6.27744e+66 -6.27744e+66 -6.27744e+66 -6.27744e+66 -6.27744e+66 
-6.27744e+66 -6.27744e+66 -6.27744e+66 -6.27744e+66 -6.27744e+66 -6.27744e+66 -6.27744e+66 -6.27744e+66 -6.27744e+66 
-6.27744e+66 -6.27744e+66 -6.27744e+66 -6.27744e+66 -6.27744e+66 -6.27744e+66 -6.27744e+66 -6.27744e+66 -6.27744e+66 
-6.27744e+66 -6.27744e+66 -6.27744e+66 -6.27744e+66 -6.27744e+66 -6.27744e+66 -6.27744e+66 -6.27744e+66 -6.27744e+66 
-6.27744e+66 -6.27744e+66 -6.27744e+66 -6.27744e+66 -6.27744e+66 -6.27744e+66 -6.27744e+66 -6.27744e+66 -6.27744e+66 
-6.27744e+66 -6.27744e+66 -6.27744e+66 -6.27744e+66 -6.27744e+66 -6.27744e+66 -6.27744e+66 -6.27744e+66 -6.27744e+66 
-6.27744e+66 -6.27744e+66 -6.27744e+66 -6.27744e+66 -6.27744e+66 -6.27744e+66 -6.27744e+66 -6.27744e+66 -6.27744e+66 
-6.27744e+66 -6.27744e+66 -6.27744e+66 -6.27744e+66 -6.27744e+66 -6.27744e+66 -6.27744e+66 -6.27744e+66 -6.27744e+66 
-6.27744e+66 -6.27744e+66 -6.27744e+66 -6.27744e+66 -6.27744e+66 -6.27744e+66 -6.27744e+66 -6.27744e+66 -6.27744e+66 
-6.27744e+66 -6.27744e+66 -6.27744e+66 -6.27744e+66 -6.27744e+66 -6.27744e+66 -6.27744e+66 -6.27744e+66 -6.27744e+66 
-6.27744e+66 -6.27744e+66 -6.27744e+66 -6.27744e+66 -6.27744e+66 -6.27744e+66 -6.27744e+66 -6.27744e+66 -6.27744e+66 
-6.27744e+66 -6.27744e+66 -6.27744e+66 -6.27744e+66 -6.27744e+66 -6.27744e+66 -6.27744e+66 -6.27744e+66 -6.27744e+66 
-6.27744e+66 -6.27744e+66 -6.27744e+66 -6.27744e+66 -6.27744e+66 -6.27744e+66 -6.27744e+66 -6.27744e+66 -6.27744e+66 
-6.27744e+66 -6.27744e+66 -6.27744e+66 -6.27744e+66 -6.27744e+66 -6.27744e+66 -6.27744e+66 -6.27744e+66 -6.27744e+66 
-6.27744e+66 -6.27744e+66 -6.27744e+66 -6.27744e+66 -6.27744e+66 -6.27744e+66 -6.27744e+66 -6.27744e+66 -6.27744e+66 
-6.27744e+66 -6.27744e+66 -6.27744e+66 -6.27744e+66 -6.27744e+66 -6.27744e+66 -6.27744e+66 -6.27744e+66 -6.27744e+66 
-6.27744e+66 -6.27744e+66 -6.27744e+66 -6.27744e+66 -6.27744e+66 -6.27744e+66 -6.27744e+66 -6.27744e+66 -6.27744e+66 
-6.27744e+66 -6.27744e+66 -6.27744e+66 -6.27744e+66 -6.27744e+66 -6.27744e+66 -6.27744e+66 -6.27744e+66 -6.27744e+66 
-6.27744e+66 -6.27744e+66 -6.27744e+66 -6.27744e+66 -6.27744e+66 -6.27744e+66 -6.27744e+66 -6.27744e+66 -6.27744e+66 
-6.27744e+66 -6.27744e+66 -6.27744e+66 -6.27744e+66 -6.27744e+66 -6.27744e+66 -6.27744e+66 -6.27744e+66 -6.27744e+66 
-6.27744e+66 -6.27744e+66 -6.27744e+66 -6.27744e+66 -6.27744e+66 -6.27744e+66 -6.27744e+66 -6.27744e+66 -6.27744e+66 
-6.27744e+66 -6.27744e+66 -6.27744e+66 -6.27744e+66 -6.27744e+66 -6.27744e+66 -6.27744e+66 -6.27744e+66 -6.27744e+66 
-6.27744e+66 -6.27744e+66 -6.27744e+66 -6.27744e+66 -6.27744e+66 -6.27744e+66 -6.27744e+66 -6.27744e+66 -6.27744e+66 
-6.27744e+66 -6.27744e+66 -6.27744e+66 -6.27744e+66 -6.27744e+66 -6.27744e+66 -6.27744e+66 -6.27744e+66 -6.27744e+66 
-6.27744e+66 -6.27744e+66 -6.27744e+66 -6.27744e+66 -6.27744e+66 -6.27744e+66 -6.27744e+66 -6.27744e+66 -6.27744e+66 
-6.27744e+66 -6.27744e+66 -6.27744e+66 -6.27744e+66 -6.27744e+66 -6.27744e+66 -6.27744e+66 -6.27744e+66 -6.27744e+66 
-6.27744e+66 -6.27744e+66 -6.27744e+66 -6.27744e+66 -6.27744e+66 -6.27744e+66 -6.27744e+66 -6.27744e+66 -6.27744e+66 
-6.27744e+66 -6.27744e+66 -6.27744e+66 -6.27744e+66 -6.27744e+66 -6.27744e+66 -6.27744e+66 -6.27744e+66 -6.27744e+66 
-6.27744e+66 -6.27744e+66 -6.27744e+66 -6.27744e+66 -6.27744e+66 -6.27744e+66 -6.27744e+66 -6.27744e+66 -6.27744e+66 
-6.27744e+66 -6.27744e+66 -6.27744e+66 -6.27744e+66 -6.27744e+66 -6.27744e+66 -6.27744e+66 -6.27744e+66 -6.27744e+66 
-6.27744e+66 -6.27744e+66 -6.27744e+66 -6.27744e+66 -6.27744e+66 -6.27744e+66 -6.27744e+66 -6.27744e+66 -6.27744e+66 
-6.27744e+66 -6.27744e+66 -6.27744e+66 -6.27744e+66 -6.27744e+66 -6.27744e+66 -6.27744e+66 -6.27744e+66 -6.27744e+66 
-6.27744e+66 -6.27744e+66 -6.27744e+66 -6.27744e+66 -6.27744e+66 -6.27744e+66 -6.27744e+66 -6.27744e+66 -6.27744e+66 
-6.27744e+66 -6.27744e+66 -6.27744e+66 -6.27744e+66 -6.27744e+66 -6.27744e+66 -6.27744e+66 -6.27744e+66 -6.27744e+66 
-6.27744e+66 -6.27744e+66 -6.27744e+66 -6.27744e+66 -6.27744e+66 -6.27744e+66 -6.27744e+66 -6.27744e+66 -6.27744e+66 
-6.27744e+66 -6.27744e+66 -6.27744e+66 -6.27744e+66 -6.27744e+66 -6.27744e+66 -6.27744e+66 -6.27744e+66 -6.27744e+66 
-6.27744e+66 -6.27744e+66 -6.27744e+66 -6.27744e+66 -6.27744e+66 -6.27744e+66 -6.27744e+66 -6.27744e+66 -6.27744e+66 
-6.27744e+66 -6.27744e+66 -6.27744e+66 -6.27744e+66 -6.27744e+66 -6.27744e+66 -6.27744e+66 -6.27744e+66 -6.27744e+66 
-6.27744e+66 -6.27744e+66 -6.27744e+66 -6.27744e+66 -6.27744e+66 -6.27744e+66 -6.27744e+66 -6.27744e+66 -6.27744e+66 
-6.27744e+66 -6.27744e+66 -6.27744e+66 -6.27744e+66 -6.27744e+66 -6.27744e+66 -6.27744e+66 -6.27744e+66 -6.27744e+66 
-6.27744e+66 -6.27744e+66 -6.27744e+66 -6.27744e+66 -6.27744e+66 -6.27744e+66 -6.27744e+66 -6.27744e+66 -6.27744e+66 
-6.27744e+66 -6.27744e+66 -6.27744e+66 -6.27744e+66 -6.27744e+66 -6.27744e+66 -6.27744e+66 -6.27744e+66 -6.27744e+66 
-6.27744e+66 -6.27744e+66 -6.27744e+66 -6.27744e+66 -6.27744e+66 -6.27744e+66 -6.27744e+66 -6.27744e+66 -6.27744e+66 
-6.27744e+66 -6.27744e+66 -6.27744e+66 -6.27744e+66 -6.27744e+66 -6.27744e+66 -6.27744e+66 -6.27744e+66 -6.27744e+66 
-6.27744e+66 -6.27744e+66 -6.27744e+66 -6.27744e+66 -6.27744e+66 -6.27744e+66 -6.27744e+66 -6.27744e+66 -6.27744e+66 
-6.27744e+66 -6.27744e+66 -6.27744e+66 -6.27744e+66 -6.27744e+66 -6.27744e+66 -6.27744e+66 -6.27744e+66 -6.27744e+66 
-6.27744e+66 -6.27744e+66 -6.27744e+66 -6.27744e+66 -6.27744e+66 -6.27744e+66 -6.27744e+66 -6.27744e+66 -6.27744e+66 
-6.27744e+66 -6.27744e+66 -6.27744e+66 -6.27744e+66 -6.27744e+66 -6.27744e+66 -6.27744e+66 -6.27744e+66 -6.27744e+66 
-6.27744e+66 -6.27744e+66 -6.27744e+66 -6.27744e+66 -6.27744e+66 -6.27744e+66 -6.27744e+66 -6.27744e+66 -6.27744e+66 
-6.27744e+66 -6.27744e+66 -6.27744e+66 -6.27744e+66 -6.27744e+66 -6.27744e+66 -6.27744e+66 -6.27744e+66 -6.27744e+66 
-6.27744e+66 -6.27744e+66 -6.27744e+66 -6.27744e+66 -6.27744e+66 -6.27744e+66 -6.27744e+66 -6.27744e+66 -6.27744e+66 
-6.27744e+66 -6.27744e+66 -6.27744e+66 -6.27744e+66 -6.27744e+66 -6.27744e+66 -6.27744e+66 -6.27744e+66 -6.27744e+66 
-6.27744e+66 -6.27744e+66 -6.27744e+66 -6.27744e+66 -6.27744e+66 -6.27744e+66 -6.27744e+66 -6.27744e+66 -6.27744e+66 
-6.27744e+66 -6.27744e+66 -6.27744e+66 -6.27744e+66 -6.27744e+66 -6.27744e+66 -6.27744e+66 -6.27744e+66 -6.27744e+66 
-6.27744e+66 -6.27744e+66 -6.27744e+66 -6.27744e+66 -6.27744e+66 -6.27744e+66 -6.27744e+66 -6.27744e+66 -6.27744e+66 
-6.27744e+66 -6.27744e+66 -6.27744e+66 -6.27744e+66 -6.27744e+66 -6.27744e+66 -6.27744e+66 -6.27744e+66 -6.27744e+66 
-6.27744e+66 -6.27744e+66 -6.27744e+66 -6.27744e+66 -6.27744e+66 -6.27744e+66 -6.27744e+66 -6.27744e+66 -6.27744e+66 
-6.27744e+66 -6.27744e+66 -6.27744e+66 -6.27744e+66 -6.27744e+66 -6.27744e+66 -6.27744e+66 -6.27744e+66 -6.27744e+66 
-6.27744e+66 -6.27744e+66 -6.27744e+66 -6.27744e+66 -6.27744e+66 -6.27744e+66 -6.27744e+66 -6.27744e+66 -6.27744e+66 
-6.27744e+66 -6.27744e+66 -6.27744e+66 -6.27744e+66 -6.27744e+66 -6.27744e+66 -6.27744e+66 -6.27744e+66 -6.27744e+66 
-6.27744e+66 -6.27744e+66 -6.27744e+66 -6.27744e+66 -6.27744e+66 -6.27744e+66 -6.27744e+66 -6.27744e+66 -6.27744e+66 
-6.27744e+66 -6.27744e+66 -6.27744e+66 -6.27744e+66 -6.27744e+66 -6.27744e+66 -6.27744e+66 -6.27744e+66 -6.27744e+66 
-6.27744e+66 -6.27744e+66 -6.27744e+66 -6.27744e+66 -6.27744e+66 -6.27744e+66 -6.27744e+66 -6.27744e+66 -6.27744e+66 
-6.27744e+66 -6.27744e+66 -6.27744e+66 -6.27744e+66 -6.27744e+66 -6.27744e+66 -6.27744e+66 -6.27744e+66 -6.27744e+66 
-6.27744e+66 -6.27744e+66 -6.27744e+66 -6.27744e+66 -6.27744e+66 -6.27744e+66 -6.27744e+66 -6.27744e+66 -6.27744e+66 
-6.27744e+66 -6.27744e+66 -6.27744e+66 -6.27744e+66 -6.27744e+66 -6.27744e+66 -6.27744e+66 -6.27744e+66 -6.27744e+66 
-6.27744e+66 -6.27744e+66 -6.27744e+66 -6.27744e+66 -6.27744e+66 -6.27744e+66 -6.27744e+66 -6.27744e+66 -6.27744e+66 
-6.27744e+66 -6.27744e+66 -6.27744e+66 -6.27744e+66 -6.27744e+66 -6.27744e+66 -6.27744e+66 -6.27744e+66 -6.27744e+66 
-6.27744e+66 -6.27744e+66 -6.27744e+66 -6.27744e+66 -6.27744e+66 -6.27744e+66 -6.27744e+66 -6.27744e+66 -6.27744e+66 
-6.27744e+66 -6.27744e+66 -6.27744e+66 -6.27744e+66 -6.27744e+66 -6.27744e+66 -6.27744e+66 -6.27744e+66 -6.27744e+66 
-6.27744e+66 -6.27744e+66 -6.27744e+66 -6.27744e+66 -6.27744e+66 -6.27744e+66 -6.27744e+66 -6.27744e+66 -6.27744e+66 
-6.27744e+66 -6.27744e+66 -6.27744e+66 -6.27744e+66 -6.27744e+66 -6.27744e+66 -6.27744e+66 -6.27744e+66 -6.27744e+66 
-6.27744e+66 -6.27744e+66 -6.27744e+66 -6.27744e+66 -6.27744e+66 -6.27744e+66 -6.27744e+66 -6.27744e+66 -6.27744e+66 
-6.27744e+66 -6.27744e+66 -6.27744e+66 -6.27744e+66 -6.27744e+66 -6.27744e+66 -6.27744e+66 -6.27744e+66 -6.27744e+66 
-6.27744e+66 -6.27744e+66 -6.27744e+66 -6.27744e+66 -6.27744e+66 -6.27744e+66 -6.27744e+66 -6.27744e+66 -6.27744e+66 
-6.27744e+66 -6.27744e+66 -6.27744e+66 -6.27744e+66 -6.27744e+66 -6.27744e+66 -6.27744e+66 -6.27744e+66 -6.27744e+66 
-6.27744e+66 -6.27744e+66 -6.27744e+66 -6.27744e+66 -6.27744e+66 -6.27744e+66 -6.27744e+66 -6.27744e+66 -6.27744e+66 
-6.27744e+66 -6.27744e+66 -6.27744e+66 -6.27744e+66 -6.27744e+66 -6.27744e+66 -6.27744e+66 -6.27744e+66 -6.27744e+66 
-6.27744e+66 -6.27744e+66 -6.27744e+66 -6.27744e+66 -6.27744e+66 -6.27744e+66 -6.27744e+66 -6.27744e+66 -6.27744e+66 
-6.27744e+66 -6.27744e+66 -6.27744e+66 -6.27744e+66 -6.27744e+66 -6.27744e+66 -6.27744e+66 -6.27744e+66 -6.27744e+66 
-6.27744e+66 -6.27744e+66 -6.27744e+66 -6.27744e+66 -6.27744e+66 -6.27744e+66 -6.27744e+66 -6.27744e+66 -6.27744e+66 
-6.27744e+66 -6.27744e+66 -6.27744e+66 -6.27744e+66 -6.27744e+66 -6.27744e+66 -6.27744e+66 -6.27744e+66 -6.27744e+66 
-6.27744e+66 -6.27744e+66 -6.27744e+66 -6.27744e+66 -6.27744e+66 -6.27744e+66 -6.27744e+66 -6.27744e+66 -6.27744e+66 
-6.27744e+66 -6.27744e+66 -6.27744e+66 -6.27744e+66 -6.27744e+66 -6.27744e+66 -6.27744e+66 -6.27744e+66 -6.27744e+66 
-6.27744e+66 -6.27744e+66 -6.27744e+66 -6.27744e+66 -6.27744e+66 -6.27744e+66 -6.27744e+66 -6.27744e+66 -6.27744e+66 
-6.27744e+66 -6.27744e+66 -6.27744e+66 -6.27744e+66 -6.27744e+66 -6.27744e+66 -6.27744e+66 -6.27744e+66 -6.27744e+66 
-6.27744e+66 -6.27744e+66 -6.27744e+66 -6.27744e+66 -6.27744e+66 -6.27744e+66 -6.27744e+66 -6.27744e+66 -6.27744e+66 
-6.27744e+66 -6.27744e+66 -6.27744e+66 -6.27744e+66 -6.27744e+66 -6.27744e+66 -6.27744e+66 -6.27744e+66 -6.27744e+66 
-6.27744e+66 -6.27744e+66 -6.27744e+66 -6.27744e+66 -6.27744e+66 -6.27744e+66 -6.27744e+66 -6.27744e+66 -6.27744e+66 
-6.27744e+66 -6.27744e+66 -6.27744e+66 -6.27744e+66 -6.27744e+66 -6.27744e+66 -6.27744e+66 -6.27744e+66 -6.27744e+66 
-6.27744e+66 -6.27744e+66 -6.27744e+66 -6.27744e+66 -6.27744e+66 -6.27744e+66 -6.27744e+66 -6.27744e+66 -6.27744e+66 
-6.27744e+66 -6.27744e+66 -6.27744e+66 -6.27744e+66 -6.27744e+66 -6.27744e+66 -6.27744e+66 -6.27744e+66 -6.27744e+66 
-6.27744e+66 -6.27744e+66 -6.27744e+66 -6.27744e+66 -6.27744e+66 -6.27744e+66 -6.27744e+66 -6.27744e+66 -6.27744e+66 
-6.27744e+66 -6.27744e+66 -6.27744e+66 -6.27744e+66 -6.27744e+66 -6.27744e+66 -6.27744e+66 -6.27744e+66 -6.27744e+66 
-6.27744e+66 -6.27744e+66 -6.27744e+66 -6.27744e+66 -6.27744e+66 -6.27744e+66 -6.27744e+66 -6.27744e+66 -6.27744e+66 
-6.27744e+66 -6.27744e+66 -6.27744e+66 -6.27744e+66 -6.27744e+66 -6.27744e+66 -6.27744e+66 -6.27744e+66 -6.27744e+66 
-6.27744e+66 -6.27744e+66 -6.27744e+66 -6.27744e+66 -6.27744e+66 -6.27744e+66 -6.27744e+66 -6.27744e+66 -6.27744e+66 
-6.27744e+66 -6.27744e+66 -6.27744e+66 -6.27744e+66 -6.27744e+66 -6.27744e+66 -6.27744e+66 -6.27744e+66 -6.27744e+66 
-6.27744e+66 -6.27744e+66 -6.27744e+66 -6.27744e+66 -6.27744e+66 -6.27744e+66 -6.27744e+66 -6.27744e+66 -6.27744e+66 
-6.27744e+66 -6.27744e+66 -6.27744e+66 -6.27744e+66 -6.27744e+66 -6.27744e+66 -6.27744e+66 -6.27744e+66 -6.27744e+66 
-6.27744e+66 -6.27744e+66 -6.27744e+66 -6.27744e+66 -6.27744e+66 -6.27744e+66 -6.27744e+66 -6.27744e+66 -6.27744e+66 
-6.27744e+66 -6.27744e+66 -6.27744e+66 -6.27744e+66 -6.27744e+66 -6.27744e+66 -6.27744e+66 -6.27744e+66 -6.27744e+66 
-6.27744e+66 -6.27744e+66 -6.27744e+66 -6.27744e+66 -6.27744e+66 -6.27744e+66 -6.27744e+66 -6.27744e+66 -6.27744e+66 
-6.27744e+66 -6.27744e+66 -6.27744e+66 -6.27744e+66 -6.27744e+66 -6.27744e+66 -6.27744e+66 -6.27744e+66 -6.27744e+66 
-6.27744e+66 -6.27744e+66 -6.27744e+66 -6.27744e+66 -6.27744e+66 -6.27744e+66 -6.27744e+66 -6.27744e+66 -6.27744e+66 
-6.27744e+66 -6.27744e+66 -6.27744e+66 -6.27744e+66 -6.27744e+66 -6.27744e+66 -6.27744e+66 -6.27744e+66 -6.27744e+66 
-6.27744e+66 -6.27744e+66 -6.27744e+66 -6.27744e+66 -6.27744e+66 -6.27744e+66 -6.27744e+66 -6.27744e+66 -6.27744e+66 
-6.27744e+66 -6.27744e+66 -6.27744e+66 -6.27744e+66 -6.27744e+66 -6.27744e+66 -6.27744e+66 -6.27744e+66 -6.27744e+66 
-6.27744e+66 -6.27744e+66 -6.27744e+66 -6.27744e+66 -6.27744e+66 -6.27744e+66 -6.27744e+66 -6.27744e+66 -6.27744e+66 
-6.27744e+66 -6.27744e+66 -6.27744e+66 -6.27744e+66 -6.27744e+66 -6.27744e+66 -6.27744e+66 -6.27744e+66 -6.27744e+66 
-6.27744e+66 -6.27744e+66 -6.27744e+66 -6.27744e+66 -6.27744e+66 -6.27744e+66 -6.27744e+66 -6.27744e+66 -6.27744e+66 
-6.27744e+66 -6.27744e+66 -6.27744e+66 -6.27744e+66 -6.27744e+66 -6.27744e+66 -6.27744e+66 -6.27744e+66 -6.27744e+66 
-6.27744e+66 -6.27744e+66 -6.27744e+66 -6.27744e+66 -6.27744e+66 -6.27744e+66 -6.27744e+66 -6.27744e+66 -6.27744e+66 
-6.27744e+66 -6.27744e+66 -6.27744e+66 -6.27744e+66 -6.27744e+66 -6.27744e+66 -6.27744e+66 -6.27744e+66 -6.27744e+66 
-6.27744e+66 -6.27744e+66 -6.27744e+66 -6.27744e+66 -6.27744e+66 -6.27744e+66 -6.27744e+66 -6.27744e+66 -6.27744e+66 
-6.27744e+66 -6.27744e+66 -6.27744e+66 -6.27744e+66 -6.27744e+66 -6.27744e+66 -6.27744e+66 -6.27744e+66 -6.27744e+66 
-6.27744e+66 -6.27744e+66 -6.27744e+66 -6.27744e+66 -6.27744e+66 -6.27744e+66 -6.27744e+66 -6.27744e+66 -6.27744e+66 
-6.27744e+66 -6.27744e+66 -6.27744e+66 -6.27744e+66 -6.27744e+66 -6.27744e+66 -6.27744e+66 -6.27744e+66 -6.27744e+66 
-6.27744e+66 -6.27744e+66 -6.27744e+66 -6.27744e+66 -6.27744e+66 -6.27744e+66 -6.27744e+66 -6.27744e+66 -6.27744e+66 
-6.27744e+66 -6.27744e+66 -6.27744e+66 -6.27744e+66 -6.27744e+66 -6.27744e+66 -6.27744e+66 -6.27744e+66 -6.27744e+66 
-6.27744e+66 -6.27744e+66 -6.27744e+66 -6.27744e+66 -6.27744e+66 -6.27744e+66 -6.27744e+66 -6.27744e+66 -6.27744e+66 
-6.27744e+66 -6.27744e+66 -6.27744e+66 -6.27744e+66 -6.27744e+66 -6.27744e+66 -6.27744e+66 -6.27744e+66 -6.27744e+66 
-6.27744e+66 -6.27744e+66 -6.27744e+66 -6.27744e+66 -6.27744e+66 -6.27744e+66 -6.27744e+66 -6.27744e+66 -6.27744e+66 
-6.27744e+66 -6.27744e+66 -6.27744e+66 -6.27744e+66 -6.27744e+66 -6.27744e+66 -6.27744e+66 -6.27744e+66 -6.27744e+66 
-6.27744e+66 -6.27744e+66 -6.27744e+66 -6.27744e+66 -6.27744e+66 -6.27744e+66 -6.27744e+66 -6.27744e+66 -6.27744e+66 
-6.27744e+66 -6.27744e+66 -6.27744e+66 -6.27744e+66 -6.27744e+66 -6.27744e+66 -6.27744e+66 -6.27744e+66 -6.27744e+66 
-6.27744e+66 -6.27744e+66 -6.27744e+66 -6.27744e+66 -6.27744e+66 -6.27744e+66 -6.27744e+66 -6.27744e+66 -6.27744e+66 
-6.27744e+66 -6.27744e+66 -6.27744e+66 -6.27744e+66 -6.27744e+66 -6.27744e+66 -6.27744e+66 -6.27744e+66 -6.27744e+66 
-6.27744e+66 -6.27744e+66 -6.27744e+66 -6.27744e+66 -6.27744e+66 -6.27744e+66 -6.27744e+66 -6.27744e+66 -6.27744e+66 
-6.27744e+66 -6.27744e+66 -6.27744e+66 -6.27744e+66 -6.27744e+66 -6.27744e+66 -6.27744e+66 -6.27744e+66 -6.27744e+66 
-6.27744e+66 -6.27744e+66 -6.27744e+66 -6.27744e+66 -6.27744e+66 -6.27744e+66 -6.27744e+66 -6.27744e+66 -6.27744e+66 
-6.27744e+66 -6.27744e+66 -6.27744e+66 -6.27744e+66 -6.27744e+66 -6.27744e+66 -6.27744e+66 -6.27744e+66 -6.27744e+66 
-6.27744e+66 -6.27744e+66 -6.27744e+66 -6.27744e+66 -6.27744e+66 -6.27744e+66 -6.27744e+66 -6.27744e+66 -6.27744e+66 
-6.27744e+66 -6.27744e+66 -6.27744e+66 -6.27744e+66 -6.27744e+66 -6.27744e+66 -6.27744e+66 -6.27744e+66 -6.27744e+66 
-6.27744e+66 -6.27744e+66 -6.27744e+66 -6.27744e+66 -6.27744e+66 -6.27744e+66 -6.27744e+66 -6.27744e+66 -6.27744e+66 
-6.27744e+66 -6.27744e+66 -6.27744e+66 -6.27744e+66 -6.27744e+66 -6.27744e+66 -6.27744e+66 -6.27744e+66 -6.27744e+66 
-6.27744e+66 -6.27744e+66 -6.27744e+66 -6.27744e+66 -6.27744e+66 -6.27744e+66 -6.27744e+66 -6.27744e+66 -6.27744e+66 
-6.27744e+66 -6.27744e+66 -6.27744e+66 -6.27744e+66 -6.27744e+66 -6.27744e+66 -6.27744e+66 -6.27744e+66 -6.27744e+66 
-6.27744e+66 -6.27744e+66 -6.27744e+66 -6.27744e+66 -6.27744e+66 -6.27744e+66 -6.27744e+66 -6.27744e+66 -6.27744e+66 
-6.27744e+66 -6.27744e+66 -6.27744e+66 -6.27744e+66 -6.27744e+66 -6.27744e+66 -6.27744e+66 -6.27744e+66 -6.27744e+66 