# vtk DataFile Version 3.0
vtk output
ASCII
DATASET UNSTRUCTURED_GRID
POINTS 608 float
-0.5 -0.5 3.5 -0.5 -0.5 7.5 -0.5 22.5 25.5 
-0.5 25.5 8.5 -0.5 25.5 25.5 2.5 25.5 -0.5 
10.5 25.5 -0.5 12.5 -0.5 25.5 14.5 25.5 25.5 
16.5 -0.5 -0.5 16.5 -0.5 25.5 20.5 -0.5 -0.5 
25.5 7.5 -0.5 25.5 17.5 -0.5 18.5 12.5 -0.5 
20.9286 8.5 -0.5 23.1049 7.5 -0.5 21.787 7.5 -0.5 
18.5 -0.5 3.5 15.5 -0.5 2.5 8.90625 -0.5 9.5 
4.5 -0.5 7.10376 2.09495 -0.5 8.5 0.604792 -0.5 8.5 
-0.5 9.5 15.9789 -0.5 18.3725 17.5 -0.5 21.5 20.9512 
-0.5 25.5 21.4669 6.25065 25.5 25.5 2.87533 25.5 25.5 
1.63206 23.5 25.5 3.86237 23.5 25.5 5.89393 23.5 25.5 
10.6618 22.5 25.5 17.5 17.7064 25.5 25.5 13.1901 22.5 
23.5 5.74274 25.5 21.5 10.8763 25.5 19.5 7.14076 25.5 
20.8213 4.5 25.5 19.5 5.4898 25.5 19.79 4.5 25.5 
21.5533 -0.5 19.5 18.5 -0.5 1 18.9375 1.5 -0.5 
19.7188 0.5 -0.5 19.4694 -0.5 -0.5 19.9847 -0.5 0.5 
17.7188 0.5 -0.5 16.6991 0.5 -0.5 17.3125 -0.5 0.5 
16.4063 -0.5 1.5 17.4111 -0.5 1.5 16.5 -0.5 4.5 
15.5 -0.5 3.75 15.7188 -0.5 4.5 23.0714 13.5 -0.5 
20.8951 12.5 -0.5 21.7535 13.5 -0.5 25.5 14.7628 5.5 
25.5 18.3234 3.5 24.4208 25.5 7.5 19.4604 25.5 16.5 
14.5 25.5 8.25311 7.08433 25.5 13.5 5.59955 25.5 7.5 
6.5 25.5 2.55068 7.33667 22.5 -0.5 2.5 20.1011 -0.5 
5.31539 20.5 -0.5 5.01292 12.5 -0.5 5.5 16.4873 -0.5 
3.5 14.7082 -0.5 2.64494 12.5 -0.5 3.82893 11.5 -0.5 
2.5 -0.5 4.60816 1.20467 -0.5 3.5 2.32635 -0.5 3.5 
15.5 -0.5 1.58936 16.5 -0.5 0.330078 17.5196 -0.5 -0.5 
5.5 -0.5 10.5142 7.05214 -0.5 9.5 5.94471 -0.5 9.5 
3.70276 -0.5 8.5 4.5 -0.5 8.02949 -0.5 14.8345 11.5 
-0.5 20.0266 9.5 -0.5 22.672 8.5 -0.5 21.1603 8.5 
-0.5 17.0454 9.5 -0.5 13.6454 15.5 -0.5 11.8916 18.5 
-0.5 13.5 17.4276 11.9408 25.5 12.5 9.61553 25.5 13.5 
10.5631 25.5 12.5 10.5 25.5 13.3891 14.5 25.5 19.633 
13.5 25.5 22.5665 13.5 25.5 24.2037 10.7914 25.5 25.5 
12.4559 25.5 25.5 13.658 19.5 25.5 12.5 21.3397 25.5 
16.5 22.1603 25.5 14.9487 23.5 25.5 14.4561 25.5 24.5 
17.5 20.0456 25.5 18.5 18.876 25.5 23.5 8.69913 25.5 
24.364 11.5 25.5 24.5 9.92435 25.5 22.449 4.5 25.5 
22.5268 5.5 25.5 14.2843 4.5 25.5 12.5 2.31836 25.5 
8.39024 7.5 25.5 9.92922 4.5 25.5 11.5 3.74547 25.5 
12.7899 4.5 25.5 12.5 3.38227 25.5 12.5 -0.5 17.0964 
7.5 -0.5 21.2982 6.5 -0.5 15.9062 7.55108 -0.5 18.5 
6.5 -0.5 17.4161 6.5 -0.5 18.4676 -0.5 11.4295 14.5 
-0.5 9.89805 14.5 0.5 -0.5 7.50549 -0.5 2.5 5.5 
-0.5 0.5 5.25 -0.5 1.35938 6.5 -0.5 1.49133 5.5 
-0.5 2.36804 6.5 -0.5 13.5 13.28 -0.5 12.235 13.5 
5.5 14.4561 -0.5 10.1663 25.5 6.5 7.55444 25.5 5.5 
8.66891 25.5 6.5 7.66303 25.5 6.5 8.56032 25.5 5.5 
9.67463 25.5 5.5 10.5 25.5 5.71508 19.0523 25.5 2.5 
21.2709 25.5 5.5 19.5 25.5 4.48925 20.097 25.5 5.5 
16.3442 25.5 5.5 14.86 25.5 6.5 19.6975 13.5 -0.5 
18.6813 13.5 -0.5 7.49578 25.5 -0.5 8.5 25.5 1.51565 
7.7416 25.5 2.5 7.5 25.5 3.99077 8.5 25.5 2.29998 
9.5 23.3867 -0.5 11.5 23.7336 -0.5 16.5 25.5 2.91837 
8.60004 22.5 -0.5 9.48681 22.5 -0.5 4.02112 19.5 -0.5 
3.16225 25.5 4.5 3.5 25.5 1.91141 2.5 25.5 0.913052 
1.5 25.5 6.65462 -0.5 25.5 14.9834 2.95149 25.5 12.5 
2.5 25.5 9.50921 1.5 25.5 8.25707 4.89693 25.5 13.5 
3.6672 25.5 13.5 -0.5 20.737 18.5 -0.5 19.7662 17.5 
-0.5 16.4321 15.5 8.52104 25.5 25.5 8.5 23.2212 25.5 
6.5 4.63558 25.5 6.5 6.69148 25.5 -0.5 22.5 23.1157 
-0.5 21.5 22.2644 10.1344 6.5 25.5 10.5 5.45197 25.5 
9.5 7.41455 25.5 15.5 2.0478 25.5 16.5 0.970148 25.5 
14.5 -0.5 23.5 14.5 -0.5 25.5 15.5 -0.5 24.5 
14.5 -0.5 24.5 15.5 -0.5 25.5 16.5 -0.5 24.5 
11.5 -0.5 22.5 8.71856 -0.5 24.5 7.5 -0.5 23.131 
8.46373 -0.5 23.5 12.8333 -0.5 23.5 11.7917 -0.5 23.5 
10.4178 -0.5 24.5 11.4687 -0.5 24.5 12.4692 -0.5 24.5 
10.2246 -0.5 18.5 9.61991 -0.5 21.5 8.64554 -0.5 20.5 
9.5 -0.5 20.6421 7.79468 -0.5 20.5 10.5 -0.5 13.3943 
11.0286 -0.5 15.5 12.5 -0.5 15.6201 25.5 8.65298 5.5 
25.5 5.5 2.99511 25.5 6.94116 1.5 25.5 6.5 4.9732 
25.5 5.5 4.23692 25.5 11.7079 6.5 25.5 13.0716 5.5 
25.5 10.9915 -0.5 25.5 13.4213 -0.5 25.5 10.0168 6.5 
11.5 -0.5 10.7118 11.5 -0.5 12.2394 10.6341 -0.5 12.5 
6.5 -0.5 13.1175 6.5 -0.5 11.6238 5.52177 -0.5 11.5 
11.5 -0.5 14.2625 10.5 -0.5 14.5901 22.6463 12.5 25.5 
16.6224 25.5 17.5 18.2176 25.5 17.5 18.5 25.5 16.5787 
21.0334 25.5 11.5 21.5 25.5 8.51377 22.7845 25.5 7.5 
22.5 25.5 8.46018 23.6026 25.5 6.5 24.5 25.5 6.60051 
22.5 25.5 5.85252 17.5 21.3394 25.5 13.5 25.5 20.9293 
20.5 0.305176 -0.5 -0.5 -0.5 6.15278 -0.5 -0.5 5.14754 
-0.5 0.5 4.08929 1.45545 1.5 4.44024 3.57268 3.70698 7.5 
1.73025 3.5 5.86584 3.5 1.60728 6.00645 5.5 1.79218 7.56662 
7.97919 3.45819 10.5 12.5 3.981 11.4756 11.7733 3.5 15.4502 
9.65218 3.94653 19.5 6.56629 2.73684 20.5 7.02504 1.72607 18.5 
7.12644 3.5 14.6518 9.2724 9.5 16.0838 13.3964 13.9279 20.5 
18.6855 16.7991 13.5 19.5 19.3954 7.61138 14.3186 19.2818 3.5 
8.31318 18.6273 4.5 6.8736 21.3762 7.5 5.99063 20.5787 12.5 
5.81121 14.8909 15.5 7.5 11.3548 8.27693 15.5 12.063 7.03937 
20.2759 12.5 4.76957 23.1404 11.2899 4.5 25.5 12.019 2.50437 
25.5 15.2876 2.2649 25.5 16.5 4.42334 25.5 17.5 1.58474 
25.5 17.1779 3.5 21.298 16.5 3.71283 20.7255 15.0279 1.5 
19.1894 14.9517 0.5 14.5131 14.2496 2.5 9.45118 13.5 3.84995 
5.5 15.3638 3.77405 9.97761 21.796 5.5 12.6093 23.2619 6.5 
10.5 23.4118 6.79401 8.16597 23.1914 6.5 9.34137 21.5 7.93147 
12.5 22.1158 10.37 11.252 22.9776 12.5 15.6968 18.8554 20.5 
16.5 15.4797 22.3918 22.9594 11.0625 23.5 18.0276 9.37628 19.5 
17.5 15.4713 17.824 14.9571 11.0364 14.5 11.5 2.07147 13.1445 
13.5 1.21386 11.4756 17.008 0.5 3.01592 16.172 0.5 3.89567 
11.9656 16.3729 4.5 4.44465 10.8178 12.5 6.5 7.5953 10.3263 
4.81577 4.66377 10.5 5.5 2.39136 12.3642 5.69464 0.777323 12.5 
8.25773 -0.5 14.5118 8.50521 -0.5 12.3948 6.85471 5.56559 12.5 
6.35296 3.94416 11.5 6.5 4.32999 8.26757 4.25667 2.53651 9.5 
2.89886 1.38008 8.5 0.607986 1.86371 8.5 5.42529 10.9133 16.5 
8.50537 12.9991 17.5 8.89358 18.5 20.7947 4.3689 18.5 18.6542 
2.35528 17.5 16.4052 1.82154 18.9199 18.5 5.37071 20.5 22.389 
7.19025 25.5 19.5363 4.28206 25.5 17.1874 -0.5 25.5 18.2252 
-0.5 23.017 16.6043 -0.5 22.2646 12.7395 4.5 18.7258 5.68477 
2.61745 21.8962 6.5 5.5 22.0798 3.97403 5.93016 21.9001 1.5 
2.5 22.8006 -0.5 4.54018 23.5 2.42302 4.04679 23.3329 8.5 
6.25313 19.8612 4.5 6.70451 21.551 5.5 6.5 23.661 5.25106 
5.24218 25.5 5.30026 6.67296 22.7455 6.5 7.80882 24.1155 5.5 
9.47879 23.8145 5.5 9.5 22.7488 6.26432 8.37151 21.5 6.53032 
7.8795 22.2802 5.5 7.84128 21.0305 5.5 8.78712 21.627 5.5 
7.61449 22.3154 6.5 9.10158 23.7171 6.5 7.14998 23.8708 6.5 
8.17671 24.2676 6.5 8.24885 23.2134 5.5 6.5 23.5452 2.40119 
6.00347 23.5 3.83031 8.17854 23.5 1.23356 7.96836 22.5916 0.5 
8.99789 25.5 -0.5 9.5 25.5 0.693344 9.32522 25.5 1.5 
10.4813 25.5 0.5 9.97161 24.2156 0.5 9.02755 23.6009 0.5 
8.56201 24.2801 -0.5 9.6314 24.4637 -0.5 10.7937 24.5 -0.5 
11.5 24.4422 -0.5 11.1155 24.0879 0.5 18.0946 18.5 2.17996 
20.0892 19.32 4.5 22.5 21.6473 6.51254 22.2228 23.2854 4.5 
23.331 20.5 3.77219 23.2398 17.5 2.56946 25.5 15.4607 -0.5 
23.5 15.4536 -0.5 24.4998 15.5 -0.5 24.5 16.75 -0.5 
24.7188 17.5 -0.5 24.4541 16.5 2.27027 25.5 16.343 2.71375 
22.608 15.5 2.40503 23.2764 15.5 4.76688 20.9985 14.7785 5.5 
20.5 20.8539 11.9658 20.5 25.5 14.0796 19.5 25.5 15.0836 
15.9759 25.5 13.8085 13.0598 25.5 15.9252 11.7691 25.5 18.5602 
10.0333 25.5 21.6452 13.5 21.7478 21.7479 11.2902 19.5 22.9459 
13.1775 20.5 23.5577 13.5 23.356 23.3851 13.4763 18.5 21.8707 
15.9732 11.3687 22.5 16.5 13.2608 19.9451 22.5 14.0934 22.7907 
24.1062 13.5 24.1821 21.5 12.5342 23.7549 20.5 9.00854 25.5 
20.5 10.2101 25.5 19.5 8.34235 25.5 20.6222 7.74156 23.5 
22.7397 6.71864 23.5 22.5 11.9437 24.3358 22.5 12.1575 23.1018 
23.62 11.4151 24.5 23.5 12.4983 24.053 22.6068 13.674 24.5 
21.5 13.9095 23.7175 22.3612 13.2154 23.5 22.2594 12.5 23.7366 
21.9192 12.9908 24.5 22.3397 11.5 25.5 23.311 10.563 25.5 
23.0128 10.5 24.4434 22.196 9.50845 25.5 21.8619 7.51498 25.5 
22.5 8.35738 24.0935 23.1552 9.29543 24.5 21.2037 8.5 24.4601 
21.3439 9.84946 24.5 21.5324 8.63278 25.5 24.2245 11.8975 22.5 
25.5 11.9145 23.5 25.5 12.1604 22.5 25.5 11.5 22.8679 
25.5 12.9443 23.5 25.5 15.101 23.5 25.5 14.4072 22.5 
25.5 14.0334 23.5 25.5 15.4748 22.5 17.9407 20.6188 16.5 
19.5 22.4293 14.4785 19.5 23.7654 15.7923 15.5308 18.5 25.5 
14.8614 19.5 25.5 15.5 20.9414 23.73 14.5 20.3789 22.3461 
14.0088 21.5 23.0315 14.4172 20.5 23.5243 15.5 22.5703 25.5 
13.8832 22.2398 25.5 15.433 20.9827 25.5 14.8144 21.804 25.5 
14.6419 22.6482 24.5 14.5 21.5301 24.1158 16.1604 19.6455 24.5 
15.5 19.2034 25.5 16.579 19.4369 25.5 16.5 18.0649 25.5 
17.2946 18.7074 24.5 16.8995 17.6053 24.5 17.7558 18.5 25.5 
8.85524 6.28998 22.5 3.99069 7.5 20.4516 6.03424 5.5 17.8089 
7.42583 4.6717 19.5 8.9269 5.5 17.0495 8.5 4.18936 21.5254 
8.5 1.70816 22.0289 6.5 1.20875 21.8891 7.16875 2.07343 24.5 
9.5 2.59304 24.058 10.5 3.67596 24.374 10.6178 1.5 22.5299 
9.61464 2.70218 22.5 8.39606 1.5 23.6248 9.0306 0.5 23.888 
10.3899 0.5 23.502 9.56819 -0.5 24.5 9.68666 -0.5 23.2592 
8.69508 0.5 21.4264 8.61345 -0.5 21.506 9.62515 0.5 22.3807 
10.5 -0.5 22.1127 10.6893 -0.5 23.1087 11.5 0.574483 23.0425 
12.5 0.737687 23.9449 14.5 3.07949 25.5 13.5656 3.66422 24.5 
13.5371 4.5 25.5 13.5128 3.48255 25.5 12.4389 3.99459 24.5 
12.3877 7.1999 16.5 10.5183 2.22023 10.5 12.3917 2.3776 10.5 
11.5 1.76283 11.6185 11.1368 0.897931 10.5 11.5 0.816673 12.6041 
12.0021 0.5 11.4202 16.46 -0.5 3.125 18.5 -0.5 2.25 
19.5 -0.5 2.875 18.8047 0.5 2.875 22.5 6.72821 3.61601 
19.5 9.1151 3.04951 16.7281 11.5 3.59757 18.8726 11.5 1.97098 
17.5 13.8576 2.38826 21.8482 15.5 4.5896 22.64 16.5 4.052 
22.0657 15.7 3.5 21.1397 15.8742 2.5 24.1336 17.0249 3.5 
24.032 18.5 3.33499 21.5 22.9234 10.0433 23.5 23.1093 8.40501 
23.4554 24.5 8.22101 22.5 23.6147 6.42181 23.5 24.2752 6.93686 
22.6155 24.6669 6.5 22.5 24.6399 7.93795 21.5 25.5 10.0433 
18.2206 25.5 8.20699 22.0424 24.5 9.27855 23.1801 24.7794 7.5 
20.9468 7.5 1.83766 22.994 3.5 3.61601 15.906 0.5 2.80587 
3.82893 12.7009 0.5 4.5 11.9064 -0.5 3.34133 13.5 -0.5 
[...]
CELL_DATA 1250
FIELD FieldData 4
skewnessScalars 1 1250 double
-6.27744e+66 -6.27744e+66 -6.27744e+66 -6.27744e+66 -6.27744e+66 -6.27744e+66 -6.27744e+66 -6.27744e+66 -6.27744e+66 
-6.27744e+66 -6.27744e+66 -6.27744e+66 -6.27744e+66 -6.27744e+66 -6.27744e+66 -6.27744e+66 -6.27744e+66 -6.27744e+66 
-6.27744e+66 -6.27744e+66 -6.27744e+66 -6.27744e+66 -6.27744e+66 -6.27744e+66 -6.27744e+66 -6.27744e+66 -6.27744e+66 
-6.27744e+66 -6.27744e+66 -6.27744e+66 -6.27744e+66 -6.27744e+66 -6.27744e+66 -6.27744e+66 -6.27744e+66 -6.27744e+66 
-6.27744e+66 -6.27744e+66 -6.27744e+66 -6.27744e+66 -6.27744e+66 -6.27744e+66 -6.27744e+66 -6.27744e+66 -6.27744e+66 
-6.27744e+66 -6.27744e+66 -6.27744e+66 -6.27744e+66 -6.27744e+66 -6.27744e+66 -6.27744e+66 -6.27744e+66 -6.27744e+66 
-6.27744e+66 -6.27744e+66 -6.27744e+66 -6.27744e+66 -6.27744e+66 -6.27744e+66 -6.27744e+66 -6.27744e+66 -6.27744e+66 
-6.27744e+66 -6.27744e+66 -6.27744e+66 -6.27744e+66 -6.27744e+66 -6.27744e+66 -6.27744e+66 -6.27744e+66 -6.27744e+66 
-6.27744e+66 -6.27744e+66 -6.27744e+66 -6.27744e+66 -6.27744e+66 -6.27744e+66 -6.27744e+66 -6.27744e+66 -6.27744e+66 
-6.27744e+66 -6.27744e+66 -6.27744e+66 -6.27744e+66 -6.27744e+66 -6.27744e+66 -6.27744e+66 -6.27744e+66 -6.27744e+66 
-6.27744e+66 -6.27744e+66 -6.27744e+66 -6.27744e+66 -6.27744e+66 -6.27744e+66 -6.27744e+66 -6.27744e+66 -6.27744e+66 
-6.27744e+66 -6.27744e+66 -6.27744e+66 -6.27744e+66 -6.27744e+66 -6.27744e+66 -6.27744e+66 -6.27744e+66 -6.27744e+66 
-6.27744e+66 -6.27744e+66 -6.27744e+66 -6.27744e+66 -6.27744e+66 -6.27744e+66 -6.27744e+66 -6.27744e+66 -6.27744e+66 
-6.27744e+66 -6.27744e+66 -6.27744e+66 -6.27744e+66 -6.27744e+66 -6.27744e+66 -6.27744e+66 -6.27744e+66 -6.27744e+66 
-6.27744e+66 -6.27744e+66 -6.27744e+66 -6.27744e+66 -6.27744e+66 -6.27744e+66 -6.27744e+66 -6.27744e+66 -6.27744e+66 
-6.27744e+66 -6.27744e+66 -6.27744e+66 -6.27744e+66 -6.27744e+66 -6.27744e+66 -6.27744e+66 -6.27744e+66 -6.27744e+66 
-6.27744e+66 -6.27744e+66 -6.27744e+66 -6.27744e+66 -6.27744e+66 -6.27744e+66 -6.27744e+66 -6.27744e+66 -6.27744e+66 
-6.27744e+66 -6.27744e+66 -6.27744e+66 -6.27744e+66 -6.27744e+66 -6.27744e+66 -6.27744e+66 -6.27744e+66 -6.27744e+66 
-6.27744e+66 -6.27744e+66 -6.27744e+66 -6.27744e+66 -6.27744e+66 -6.27744e+66 -6.27744e+66 -6.27744e+66 -6.27744e+66 
-6.27744e+66 -6.27744e+66 -6.27744e+66 -6.27744e+66 -6.27744e+66 -6.27744e+66 -6.27744e+66 -6.27744e+66 -6.27744e+66 
-6.27744e+66 -6.27744e+66 -6.27744e+66 -6.27744e+66 -6.27744e+66 -6.27744e+66 -6.27744e+66 -6.27744e+66 -6.27744e+66 
-6.27744e+66 -6.27744e+66 -6.27744e+66 -6.27744e+66 -6.27744e+66 -6.27744e+66 -6.27744e+66 -6.27744e+66 -6.27744e+66 
-6.27744e+66 -6.27744e+66 -6.27744e+66 -6.27744e+66 -6.27744e+66 -6.27744e+66 -6.27744e+66 -6.27744e+66 -6.27744e+66 
-6.27744e+66 -6.27744e+66 -6.27744e+66 -6.27744e+66 -6.27744e+66 -6.27744e+66 -6.27744e+66 -6.27744e+66 -6.27744e+66 
-6.27744e+66 -6.27744e+66 -6.27744e+66 -6.27744e+66 -6.27744e+66 -6.27744e+66 -6.27744e+66 -6.27744e+66 -6.27744e+66 
-6.27744e+66 -6.27744e+66 -6.27744e+66 -6.27744e+66 -6.27744e+66 -6.27744e+66 -6.27744e+66 -6.27744e+66 -6.27744e+66 
-6.27744e+66 -6.27744e+66 -6.27744e+66 -6.27744e+66 -6.27744e+66 -6.27744e+66 -6.27744e+66 -6.27744e+66 -6.27744e+66 
-6.27744e+66 -6.27744e+66 -6.27744e+66 -6.27744e+66 -6.27744e+66 -6.27744e+66 -6.27744e+66 -6.27744e+66 -6.27744e+66 
-6.27744e+66 -6.27744e+66 -6.27744e+66 -6.27744e+66 -6.27744e+66 -6.27744e+66 -6.27744e+66 -6.27744e+66 -6.27744e+66 
-6.27744e+66 -6.27744e+66 -6.27744e+66 -6.27744e+66 -6.27744e+66 -6.27744e+66 -6.27744e+66 -6.27744e+66 -6.27744e+66 
-6.27744e+66 -6.27744e+66 -6.27744e+66 -6.27744e+66 -6.27744e+66 -6.27744e+66 -6.27744e+66 -6.27744e+66 -6.27744e+66 
-6.27744e+66 -6.27744e+66 -6.27744e+66 -6.27744e+66 -6.27744e+66 -6.27744e+66 -6.27744e+66 -6.27744e+66 -6.27744e+66 
-6.27744e+66 -6.27744e+66 -6.27744e+66 -6.27744e+66 -6.27744e+66 -6.27744e+66 -6.27744e+66 -6.27744e+66 -6.27744e+66 
-6.27744e+66 -6.27744e+66 -6.27744e+66 -6.27744e+66 -6.27744e+66 -6.27744e+66 -6.27744e+66 -6.27744e+66 -6.27744e+66 
-6.27744e+66 -6.27744e+66 -6.27744e+66 -6.27744e+66 -6.27744e+66 -6.27744e+66 -6.27744e+66 -6.27744e+66 -6.27744e+66 
-6.27744e+66 -6.27744e+66 -6.27744e+66 -6.27744e+66 -6.27744e+66 -6.27744e+66 -6.27744e+66 -6.27744e+66 -6.27744e+66 
-6.27744e+66 -6.27744e+66 -6.27744e+66 -6.27744e+66 -6.27744e+66 -6.27744e+66 -6.27744e+66 -6.27744e+66 -6.27744e+66 
-6.27744e+66 -6.27744e+66 -6.27744e+66 -6.27744e+66 -6.27744e+66 -6.27744e+66 -6.27744e+66 -6.27744e+66 -6.27744e+66 
-6.27744e+66 -6.27744e+66 -6.27744e+66 -6.27744e+66 -6.27744e+66 -6.27744e+66 -6.27744e+66 -6.27744e+66 -6.27744e+66 
-6.27744e+66 -6.27744e+66 -6.27744e+66 -6.27744e+66 -6.27744e+66 -6.27744e+66 -6.27744e+66 -6.27744e+66 -6.27744e+66 
-6.27744e+66 -6.27744e+66 -6.27744e+66 -6.27744e+66 -6.27744e+66 -6.27744e+66 -6.27744e+66 -6.27744e+66 -6.27744e+66 
-6.27744e+66 -6.27744e+66 -6.27744e+66 -6.27744e+66 -6.27744e+66 -6.27744e+66 -6.27744e+66 -6.27744e+66 -6.27744e+66 
-6.27744e+66 -6.27744e+66 -6.27744e+66 -6.27744e+66 -6.27744e+66 -6.27744e+66 -6.27744e+66 -6.27744e+66 -6.27744e+66 
-6.27744e+66 -6.27744e+66 -6.27744e+66 -6.27744e+66 -6.27744e+66 -6.27744e+66 -6.27744e+66 -6.27744e+66 -6.27744e+66 
-6.27744e+66 -6.27744e+66 -6.27744e+66 -6.27744e+66 -6.27744e+66 -6.27744e+66 -6.27744e+66 -6.27744e+66 -6.27744e+66 
-6.27744e+66 -6.27744e+66 -6.27744e+66 -6.27744e+66 -6.27744e+66 -6.27744e+66 -6.27744e+66 -6.27744e+66 -6.27744e+66 
-6.27744e+66 -6.27744e+66 -6.27744e+66 -6.27744e+66 -6.27744e+66 -6.27744e+66 -6.27744e+66 -6.27744e+66 -6.27744e+66 
-6.27744e+66 -6.27744e+66 -6.27744e+66 -6.27744e+66 -6.27744e+66 -6.27744e+66 -6.27744e+66 -6.27744e+66 -6.27744e+66 
-6.27744e+66 -6.27744e+66 -6.27744e+66 -6.27744e+66 -6.27744e+66 -6.27744e+66 -6.27744e+66 -6.27744e+66 -6.27744e+66 
-6.27744e+66 -6.27744e+66 -6.27744e+66 -6.27744e+66 -6.27744e+66 -6.27744e+66 -6.27744e+66 -6.27744e+66 -6.27744e+66 
-6.27744e+66 -6.27744e+66 -6.27744e+66 -6.27744e+66 -6.27744e+66 -6.27744e+66 -6.27744e+66 -6.27744e+66 -6.27744e+66 
-6.27744e+66 -6.27744e+66 -6.27744e+66 -6.27744e+66 -6.27744e+66 -6.27744e+66 -6.27744e+66 -6.27744e+66 -6.27744e+66 
-6.27744e+66 -6.27744e+66 -6.27744e+66 -6.27744e+66 -6.27744e+66 -6.27744e+66 -6.27744e+66 -6.27744e+66 -6.27744e+66 
-6.27744e+66 -6.27744e+66 -6.27744e+66 -6.27744e+66 -6.27744e+66 -6.27744e+66 -6.27744e+66 -6.27744e+66 -6.27744e+66 
-6.27744e+66 -6.27744e+66 -6.27744e+66 -6.27744e+66 -6.27744e+66 -6.27744e+66 -6.27744e+66 -6.27744e+66 -6.27744e+66 
-6.27744e+66 -6.27744e+66 -6.27744e+66 -6.27744e+66 -6.27744e+66 -6.27744e+66 -6.27744e+66 -6.27744e+66 -6.27744e+66 
-6.27744e+66 -6.27744e+66 -6.27744e+66 -6.27744e+66 -6.27744e+66 -6.27744e+66 -6.27744e+66 -6.27744e+66 -6.27744e+66 
-6.27744e+66 -6.27744e+66 -6.27744e+66 -6.27744e+66 -6.27744e+66 -6.27744e+66 -6.27744e+66 -6.27744e+66 -6.27744e+66 
-6.27744e+66 -6.27744e+66 -6.27744e+66 -6.27744e+66 -6.27744e+66 -6.27744e+66 -6.27744e+66 -6.27744e+66 -6.27744e+66 
-6.27744e+66 -6.27744e+66 -6.27744e+66 -6.27744e+66 -6.27744e+66 -6.27744e+66 -6.27744e+66 -6.27744e+66 -6.27744e+66 
-6.27744e+66 -6.27744e+66 -6.27744e+66 -6.27744e+66 -6.27744e+66 -6.27744e+66 -6.27744e+66 -6.27744e+66 -6.27744e+66 
-6.27744e+66 -6.27744e+66 -6.27744e+66 -6.27744e+66 -6.27744e+66 -6.27744e+66 -6.27744e+66 -6.27744e+66 -6.27744e+66 
-6.27744e+66 -6.27744e+66 -6.27744e+66 -6.27744e+66 -6.27744e+66 -6.27744e+66 -6.27744e+66 -6.27744e+66 -6.27744e+66 
-6.27744e+66 -6.27744e+66 -6.27744e+66 -6.27744e+66 -6.27744e+66 -6.27744e+66 -6.27744e+66 -6.27744e+66 -6.27744e+66 
-6.27744e+66 -6.27744e+66 -6.27744e+66 -6.27744e+66 -6.27744e+66 -6.27744e+66 -6.27744e+66 -6.27744e+66 -6.27744e+66 
-6.27744e+66 -6.27744e+66 -6.27744e+66 -6.27744e+66 -6.27744e+66 -6.27744e+66 -6.27744e+66 -6.27744e+66 -6.27744e+66 
-6.27744e+66 -6.27744e+66 -6.27744e+66 -6.27744e+66 -6.27744e+66 -6.27744e+66 -6.27744e+66 -6.27744e+66 -6.27744e+66 
-6.27744e+66 -6.27744e+66 -6.27744e+66 -6.27744e+66 -6.27744e+66 -6.27744e+66 -6.27744e+66 -6.27744e+66 -6.27744e+66 
-6.27744e+66 -6.27744e+66 -6.27744e+66 -6.27744e+66 -6.27744e+66 -6.27744e+66 -6.27744e+66 -6.27744e+66 -6.27744e+66 
-6.27744e+66 -6.27744e+66 -6.27744e+66 -6.27744e+66 -6.27744e+66 -6.27744e+66 -6.27744e+66 -6.27744e+66 -6.27744e+66 
-6.27744e+66 -6.27744e+66 -6.27744e+66 -6.27744e+66 -6.27744e+66 -6.27744e+66 -6.27744e+66 -6.27744e+66 -6.27744e+66 
-6.27744e+66 -6.27744e+66 -6.27744e+66 -6.27744e+66 -6.27744e+66 -6.27744e+66 -6.27744e+66 -6.27744e+66 -6.27744e+66 
-6.27744e+66 -6.27744e+66 -6.27744e+66 -6.27744e+66 -6.27744e+66 -6.27744e+66 -6.27744e+66 -6.27744e+66 -6.27744e+66 
-6.27744e+66 -6.27744e+66 -6.27744e+66 -6.27744e+66 -6.27744e+66 -6.27744e+66 -6.27744e+66 -6.27744e+66 -6.27744e+66 
-6.27744e+66 -6.27744e+66 -6.27744e+66 -6.27744e+66 -6.27744e+66 -6.27744e+66 -6.27744e+66 -6.27744e+66 -6.27744e+66 
-6.27744e+66 -6.27744e+66 -6.27744e+66 -6.27744e+66 -6.27744e+66 -6.27744e+66 -6.27744e+66 -6.27744e+66 -6.27744e+66 
-6.27744e+66 -6.27744e+66 -6.27744e+66 -6.27744e+66 -6.27744e+66 -6.27744e+66 -6.27744e+66 -6.27744e+66 -6.27744e+66 
-6.27744e+66 -6.27744e+66 -6.27744e+66 -6.27744e+66 -6.27744e+66 -6.27744e+66 -6.27744e+66 -6.27744e+66 -6.27744e+66 
-6.27744e+66 -6.27744e+66 -6.27744e+66 -6.27744e+66 -6.27744e+66 -6.27744e+66 -6.27744e+66 -6.27744e+66 -6.27744e+66 
-6.27744e+66 -6.27744e+66 -6.27744e+66 -6.27744e+66 -6.27744e+66 -6.27744e+66 -6.27744e+66 -6.27744e+66 -6.27744e+66 
-6.27744e+66 -6.27744e+66 -6.27744e+66 -6.27744e+66 -6.27744e+66 -6.27744e+66 -6.27744e+66 -6.27744e+66 -6.27744e+66 
-6.27744e+66 -6.27744e+66 -6.27744e+66 -6.27744e+66 -6.27744e+66 -6.27744e+66 -6.27744e+66 -6.27744e+66 -6.27744e+66 
-6.27744e+66 -6.27744e+66 -6.27744e+66 -6.27744e+66 -6.27744e+66 -6.27744e+66 -6.27744e+66 -6.27744e+66 -6.27744e+66 
-6.27744e+66 -6.27744e+66 -6.27744e+66 -6.27744e+66 -6.27744e+66 -6.27744e+66 -6.27744e+66 -6.27744e+66 -6.27744e+66 
-6.27744e+66 -6.27744e+66 -6.27744e+66 -6.27744e+66 -6.27744e+66 -6.27744e+66 -6.27744e+66 -6.27744e+66 -6.27744e+66 
-6.27744e+66 -6.27744e+66 -6.27744e+66 -6.27744e+66 -6.27744e+66 -6.27744e+66 -6.27744e+66 -6.27744e+66 -6.27744e+66 
-6.27744e+66 -6.27744e+66 -6.27744e+66 -6.27744e+66 -6.27744e+66 -6.27744e+66 -6.27744e+66 -6.27744e+66 -6.27744e+66 
-6.27744e+66 -6.27744e+66 -6.27744e+66 -6.27744e+66 -6.27744e+66 -6.27744e+66 -6.27744e+66 -6.27744e+66 -6.27744e+66 
-6.27744e+66 -6.27744e+66 -6.27744e+66 -6.27744e+66 -6.27744e+66 -6.27744e+66 -6.27744e+66 -6.27744e+66 -6.27744e+66 
-6.27744e+66 -6.27744e+66 -6.27744e+66 -6.27744e+66 -6.27744e+66 -6.27744e+66 -6.27744e+66 -6.27744e+66 -6.27744e+66 
-6.27744e+66 -6.27744e+66 -6.27744e+66 -6.27744e+66 -6.27744e+66 -6.27744e+66 -6.27744e+66 -6.27744e+66 -6.27744e+66 
-6.27744e+66 -6.27744e+66 -6.27744e+66 -6.27744e+66 -6.27744e+66 -6.27744e+66 -6.27744e+66 -6.27744e+66 -6.27744e+66 
-6.27744e+66 -6.27744e+66 -6.27744e+66 -6.27744e+66 -6.27744e+66 -6.27744e+66 -6.27744e+66 -6.27744e+66 -6.27744e+66 
-6.27744e+66 -6.27744e+66 -6.27744e+66 -6.27744e+66 -6.27744e+66 -6.27744e+66 -6.27744e+66 -6.27744e+66 -6.27744e+66 
-6.27744e+66 -6.27744e+66 -6.27744e+66 -6.27744e+66 -6.27744e+66 -6.27744e+66 -6.27744e+66 -6.27744e+66 -6.27744e+66 
-6.27744e+66 -6.27744e+66 -6.27744e+66 -6.27744e+66 -6.27744e+66 -6.27744e+66 -6.27744e+66 -6.27744e+66 -6.27744e+66 
-6.27744e+66 -6.27744e+66 -6.27744e+66 -6.27744e+66 -6.27744e+66 -6.27744e+66 -6.27744e+66 -6.27744e+66 -6.27744e+66 
-6.27744e+66 -6.27744e+66 -6.27744e+66 -6.27744e+66 -6.27744e+66 -6.27744e+66 -6.27744e+66 -6.27744e+66 -6.27744e+66 
-6.27744e+66 -6.27744e+66 -6.27744e+66 -6.27744e+66 -6.27744e+66 -6.27744e+66 -6.27744e+66 -6.27744e+66 -6.27744e+66 
-6.27744e+66 -6.27744e+66 -6.27744e+66 -6.27744e+66 -6.27744e+66 -6.27744e+66 -6.27744e+66 -6.27744e+66 -6.27744e+66 
-6.27744e+66 -6.27744e+66 -6.27744e+66 -6.27744e+66 -6.27744e+66 -6.27744e+66 -6.27744e+66 -6.27744e+66 -6.27744e+66 
-6.27744e+66 -6.27744e+66 -6.27744e+66 -6.27744e+66 -6.27744e+66 -6.27744e+66 -6.27744e+66 -6.27744e+66 -6.27744e+66 
-6.27744e+66 -6.27744e+66 -6.27744e+66 -6.27744e+66 -6.27744e+66 -6.27744e+66 -6.27744e+66 -6.27744e+66 -6.27744e+66 
-6.27744e+66 -6.27744e+66 -6.27744e+66 -6.27744e+66 -6.27744e+66 -6.27744e+66 -6.27744e+66 -6.27744e+66 -6.27744e+66 
-6.27744e+66 -6.27744e+66 -6.27744e+66 -6.27744e+66 -6.27744e+66 -6.27744e+66 -6.27744e+66 -6.27744e+66 -6.27744e+66 
-6.27744e+66 -6.27744e+66 -6.27744e+66 -6.27744e+66 -6.27744e+66 -6.27744e+66 -6.27744e+66 -6.27744e+66 -6.27744e+66 
-6.27744e+66 -6.27744e+66 -6.27744e+66 -6.27744e+66 -6.27744e+66 -6.27744e+66 -6.27744e+66 -6.27744e+66 -6.27744e+66 
-6.27744e+66 -6.27744e+66 -6.27744e+66 -6.27744e+66 -6.27744e+66 -6.27744e+66 -6.27744e+66 -6.27744e+66 -6.27744e+66 
-6.27744e+66 -6.27744e+66 -6.27744e+66 -6.27744e+66 -6.27744e+66 -6.27744e+66 -6.27744e+66 -6.27744e+66 -6.27744e+66 
-6.27744e+66 -6.27744e+66 -6.27744e+66 -6.27744e+66 -6.27744e+66 -6.27744e+66 -6.27744e+66 -6.27744e+66 -6.27744e+66 
-6.27744e+66 -6.27744e+66 -6.27744e+66 -6.27744e+66 -6.27744e+66 -6.27744e+66 -6.27744e+66 -6.27744e+66 -6.27744e+66 
-6.27744e+66 -6.27744e+66 -6.27744e+66 -6.27744e+66 -6.27744e+66 -6.27744e+66 -6.27744e+66 -6.27744e+66 -6.27744e+66 
-6.27744e+66 -6.27744e+66 -6.27744e+66 -6.27744e+66 -6.27744e+66 -6.27744e+66 -6.27744e+66 -6.27744e+66 -6.27744e+66 
-6.27744e+66 -6.27744e+66 -6.27744e+66 -6.27744e+66 -6.27744e+66 -6.27744e+66 -6.27744e+66 -6.27744e+66 -6.27744e+66 
-6.27744e+66 -6.27744e+66 -6.27744e+66 -6.27744e+66 -6.27744e+66 -6.27744e+66 -6.27744e+66 -6.27744e+66 -6.27744e+66 
-6.27744e+66 -6.27744e+66 -6.27744e+66 -6.27744e+66 -6.27744e+66 -6.27744e+66 -6.27744e+66 -6.27744e+66 -6.27744e+66 
-6.27744e+66 -6.27744e+66 -6.27744e+66 -6.27744e+66 -6.27744e+66 -6.27744e+66 -6.27744e+66 -6.27744e+66 -6.27744e+66 
-6.27744e+66 -6.27744e+66 -6.27744e+66 -6.27744e+66 -6.27744e+66 -6.27744e+66 -6.27744e+66 -6.27744e+66 -6.27744e+66 
-6.27744e+66 -6.27744e+66 -6.27744e+66 -6.27744e+66 -6.27744e+66 -6.27744e+66 -6.27744e+66 -6.27744e+66 -6.27744e+66 
-6.27744e+66 -6.27744e+66 -6.27744e+66 -6.27744e+66 -6.27744e+66 -6.27744e+66 -6.27744e+66 -6.27744e+66 -6.27744e+66 
-6.27744e+66 -6.27744e+66 -6.27744e+66 -6.27744e+66 -6.27744e+66 -6.27744e+66 -6.27744e+66 -6.27744e+66 -6.27744e+66 
-6.27744e+66 -6.27744e+66 -6.27744e+66 -6.27744e+66 -6.27744e+66 -6.27744e+66 -6.27744e+66 -6.27744e+66 -6.27744e+66 
-6.27744e+66 -6.27744e+66 -6.27744e+66 -6.27744e+66 -6.27744e+66 -6.27744e+66 -6.27744e+66 -6.27744e+66 -6.27744e+66 
-6.27744e+66 -6.27744e+66 -6.27744e+66 -6.27744e+66 -6.27744e+66 -6.27744e+66 -6.27744e+66 -6.27744e+66 -6.27744e+66 
-6.27744e+66 -6.27744e+66 -6.27744e+66 -6.27744e+66 -6.27744e+66 -6.27744e+66 -6.27744e+66 -6.27744e+66 -6.27744e+66 
-6.27744e+66 -6.27744e+66 -6.27744e+66 -6.27744e+66 -6.27744e+66 -6.27744e+66 -6.27744e+66 -6.27744e+66 -6.27744e+66 
-6.27744e+66 -6.27744e+66 -6.27744e+66 -6.27744e+66 -6.27744e+66 -6.27744e+66 -6.27744e+66 -6.27744e+66 -6.27744e+66 
-6.27744e+66 -6.27744e+66 -6.27744e+66 -6.27744e+66 -6.27744e+66 -6.27744e+66 -6.27744e+66 -6.27744e+66 -6.27744e+66 
-6.27744e+66 -6.27744e+66 -6.27744e+66 -6.27744e+66 -6.27744e+66 -6.27744e+66 -6.27744e+66 -6.27744e+66 -6.27744e+66 
-6.27744e+66 -6.27744e+66 -6.27744e+66 -6.27744e+66 -6.27744e+66 -6.27744e+66 -6.27744e+66 -6.27744e+66 -6.27744e+66 
-6.27744e+66 -6.27744e+66 -6.27744e+66 -6.27744e+66 -6.27744e+66 -6.27744e+66 -6.27744e+66 -6.27744e+66 -6.27744e+66 
-6.27744e+66 -6.27744e+66 -6.27744e+66 -6.27744e+66 -6.27744e+66 -6.27744e+66 -6.27744e+66 -6.27744e+66 -6.27744e+66 
-6.27744e+66 -6.27744e+66 -6.27744e+66 -6.27744e+66 -6.27744e+66 -6.27744e+66 -6.27744e+66 -6.27744e+66 -6.27744e+66 
-6.27744e+66 -6.27744e+66 -6.27744e+66 -6.27744e+66 -6.27744e+66 -6.27744e+66 -6.27744e+66 -6.27744e+66 -6.27744e+66 
-6.27744e+66 -6.27744e+66 -6.27744e+66 -6.27744e+66 -6.27744e+66 -6.27744e+66 -6.27744e+66 -6.27744e+66 -6.27744e+66 
-6.27744e+66 -6.27744e+66 -6.27744e+66 -6.27744e+66 -6.27744e+66 -6.27744e+66 -6.27744e+66 -6.27744e+66 -6.27744e+66 
-6.27744e+66 -6.27744e+66 -6.27744e+66 -6.27744e+66 -6.27744e+66 -6.27744e+66 -6.27744e+66 -6.27744e+66 -6.27744e+66 
-6.27744e+66 -6.27744e+66 -6.27744e+66 -6.27744e+66 -6.27744e+66 -6.27744e+66 -6.27744e+66 -6.27744e+66 -6.27744e+66 
-6.27744e+66 -6.27744e+66 -6.27744e+66 -6.27744e+66 -6.27744e+66 -6.27744e+66 -6.27744e+66 -6.27744e+66 
RadiusEdgeRatioScalars 1 1250 double
-6.27744e+66 -6.27744e+66 -6.27744e+66 -6.27744e+66 -6.27744e+66 -6.27744e+66 -6.27744e+66 -6.27744e+66 -6.27744e+66 
-6.27744e+66 -6.27744e+66 -6.27744e+66 -6.27744e+66 -6.27744e+66 -6.27744e+66 -6.27744e+66 -6.27744e+66 -6.27744e+66 
-6.27744e+66 -6.27744e+66 -6.27744e+66 -6.27744e+66 -6.27744e+66 -6.27744e+66 -6.27744e+66 -6.27744e+66 -6.27744e+66 
-6.27744e+66 -6.27744e+66 -6.27744e+66 -6.27744e+66 -6.27744e+66 -6.27744e+66 -6.27744e+66 -6.27744e+66 -6.27744e+66 
-6.27744e+66 -6.27744e+66 -6.27744e+66 -6.27744e+66 -6.27744e+66 -6.27744e+66 -6.27744e+66 -6.27744e+66 -6.27744e+66 
-6.27744e+66 -6.27744e+66 -6.27744e+66 -6.27744e+66 -6.27744e+66 -6.27744e+66 -6.27744e+66 -6.27744e+66 -6.27744e+66 
-6.27744e+66 -6.27744e+66 -6.27744e+66 -6.27744e+66 -6.27744e+66 -6.27744e+66 -6.27744e+66 -6.27744e+66 -6.27744e+66 
-6.27744e+66 -6.27744e+66 -6.27744e+66 -6.27744e+66 -6.27744e+66 -6.27744e+66 -6.27744e+66 -6.27744e+66 -6.27744e+66 
-6.27744e+66 -6.27744e+66 -6.27744e+66 -6.27744e+66 -6.27744e+66 -6.27744e+66 -6.27744e+66 -6.27744e+66 -6.27744e+66 
-6.27744e+66 -6.27744e+66 -6.27744e+66 -6.27744e+66 -6.27744e+66 -6.27744e+66 -6.27744e+66 -6.27744e+66 -6.27744e+66 
-6.27744e+66 -6.27744e+66 -6.27744e+66 -6.27744e+66 -6.27744e+66 -6.27744e+66 -6.27744e+66 -6.27744e+66 -6.27744e+66 
-6.27744e+66 -6.27744e+66 -6.27744e+66 -6.27744e+66 -6.27744e+66 -6.27744e+66 -6.27744e+66 -6.27744e+66 -6.27744e+66 
-6.27744e+66 -6.27744e+66 -6.27744e+66 -6.27744e+66 -6.27744e+66 -6.27744e+66 -6.27744e+66 -6.27744e+66 -6.27744e+66 
-6.27744e+66 -6.27744e+66 -6.27744e+66 -6.27744e+66 -6.27744e+66 -6.27744e+66 -6.27744e+66 -6.27744e+66 -6.27744e+66 
-6.27744e+66 -6.27744e+66 -6.27744e+66 -6.27744e+66 -6.27744e+66 -6.27744e+66 -6.27744e+66 -6.27744e+66 -6.27744e+66 
-6.27744e+66 -6.27744e+66 -6.27744e+66 -6.27744e+66 -6.27744e+66 -6.27744e+66 -6.27744e+66 -6.27744e+66 -6.27744e+66 
-6.27744e+66 -6.27744e+66 -6.27744e+66 -6.27744e+66 -6.27744e+66 -6.27744e+66 -6.27744e+66 -6.27744e+66 -6.27744e+66 
-6.27744e+66 -6.27744e+66 -6.27744e+66 -6.27744e+66 -6.27744e+66 -6.27744e+66 -6.27744e+66 -6.27744e+66 -6.27744e+66 
-6.27744e+66 -6.27744e+66 -6.27744e+66 -6.27744e+66 -6.27744e+66 -6.27744e+66 -6.27744e+66 -6.27744e+66 -6.27744e+66 
-6.27744e+66 -6.27744e+66 -6.27744e+66 -6.27744e+66 -6.27744e+66 -6.27744e+66 -6.27744e+66 -6.27744e+66 -6.27744e+66 
-6.27744e+66 -6.27744e+66 -6.27744e+66 -6.27744e+66 -6.27744e+66 -6.27744e+66 -6.27744e+66 -6.27744e+66 -6.27744e+66 
-6.27744e+66 -6.27744e+66 -6.27744e+66 -6.27744e+66 -6.27744e+66 -6.27744e+66 -6.27744e+66 -6.27744e+66 -6.27744e+66 
-6.27744e+66 -6.27744e+66 -6.27744e+66 -6.27744e+66 -6.27744e+66 -6.27744e+66 -6.27744e+66 -6.27744e+66 -6.27744e+66 
-6.27744e+66 -6.27744e+66 -6.27744e+66 -6.27744e+66 -6.27744e+66 -6.27744e+66 -6.27744e+66 -6.27744e+66 -6.27744e+66 
-6.27744e+66 -6.27744e+66 -6.27744e+66 -6.27744e+66 -6.27744e+66 -6.27744e+66 -6.27744e+66 -6.27744e+66 -6.27744e+66 
-6.27744e+66 -6.27744e+66 -6.27744e+66 -6.27744e+66 -6.27744e+66 -6.27744e+66 -6.27744e+66 -6.27744e+66 -6.27744e+66 
-6.27744e+66 -6.27744e+66 -6.27744e+66 -6.27744e+66 -6.27744e+66 -6.27744e+66 -6.27744e+66 -6.27744e+66 -6.27744e+66 
-6.27744e+66 -6.27744e+66 -6.27744e+66 -6.27744e+66 -6.27744e+66 -6.27744e+66 -6.27744e+66 -6.27744e+66 -6.27744e+66 
-6.27744e+66 -6.27744e+66 -6.27744e+66 -6.27744e+66 -6.27744e+66 -6.27744e+66 -6.27744e+66 -6.27744e+66 -6.27744e+66 