# vtk DataFile Version 3.0
vtk output
ASCII
DATASET UNSTRUCTURED_GRID
POINTS 2809 float
-0.5 -0.5 9.5 -0.5 -0.5 20.5 -0.5 46.5 49.5 
-0.5 47.5 -0.5 -0.5 49.5 -0.5 -0.5 49.5 1.5 
-0.5 49.5 32.5 -0.5 49.5 49.5 2.5 49.5 -0.5 
11.5 -0.5 49.5 14.5 49.5 49.5 17.5 -0.5 49.5 
42.5 49.5 49.5 47.5 49.5 49.5 49.5 -0.5 25.5 
49.5 -0.5 28.5 49.5 5.5 -0.5 49.5 13.5 -0.5 
49.5 15.5 49.5 49.5 26.5 49.5 49.5 49.5 26.5 
49.5 49.5 28.5 49.5 49.5 45.5 49.5 49.5 47.5 
49.5 48.5 46.5 49.5 46.5 43.5 49.5 37.5 33.9 
49.5 19.0258 27.5 49.5 9.57018 23.5 49.5 3.74067 20.5 
44.5 -0.5 21.2017 22.7811 -0.5 13.5 34.6515 -0.5 14.5 
43.5 -0.5 12.0839 44.2928 -0.5 26.5 46.1282 -0.5 29.5 
36.1265 -0.5 43.5 36.6817 11.5 49.5 40.1654 21.5 49.5 
43.5 26.488 49.5 49.5 32.5 42.0526 49.5 27.5 33.3765 
49.5 19.5 35.8645 49.5 20.2875 43.5 46.486 33.5 49.5 
46.496 28.5 49.5 44.5 28.2356 49.5 43.5 31.6196 49.5 
43.5 34.9307 49.5 42.3571 49.5 41.5 43.5 49.5 45.4809 
46.3785 49.5 42.5 44.2435 49.5 42.5 42.5 49.5 43.6483 
45 48.5 49.5 43.5 49.5 47.6148 43.55 48.5 49.5 
44.275 49.5 49.5 45.3272 49.5 49.5 49.5 49.5 46.5 
45.6604 31.5 49.5 47.5 26.752 49.5 42.5716 23.5 49.5 
16.5 24.1373 49.5 28.8544 27.5 49.5 32.5 20.7111 49.5 
49.5 22.5295 31.5 49.5 24.6139 33.5 49.5 15.5 31.8956 
49.5 9.98349 29.5 49.5 4.88482 27.5 44.5 -0.5 23.8549 
47.5 -0.5 22.5283 49.5 0.663652 20.5 49.5 1.5 23.3138 
49.5 1.5 25.3217 42.7588 -0.5 29.5 38.6366 -0.5 25.5 
23.1405 -0.5 29.5 10.5 -0.5 27.1545 14.5 -0.5 38.1706 
15.5 -0.5 31.5733 16.5 -0.5 35.0993 22.971 -0.5 41.5 
30.4609 -0.5 36.5 33.5 -0.5 30.2205 37.5 -0.5 29.4182 
36.6395 -0.5 35.5 37.5 -0.5 39.5716 36.5 -0.5 37.6562 
35.3623 -0.5 36.5 37.5 -0.5 36.6383 37.8226 -0.5 35.5 
38.5 -0.5 36.3069 40.1443 -0.5 28.5 40.5 -0.5 26.4424 
46.9924 -0.5 26.5 46.5 -0.5 24.4672 46.6036 -0.5 20.5 
39.8145 -0.5 17.5 43.5 -0.5 16.0459 42.5 -0.5 18.909 
45.0188 -0.5 18.5 48.2856 -0.5 20.5 43.5 -0.5 22.5283 
49.5 14.721 24.5 49.5 9.5 3.5 46.5 9.5 -0.5 
49.5 8.625 -0.5 49.5 7.5 1.8418 49.5 5.52921 1.5 
47.5 7.0625 -0.5 46.6667 12.5 -0.5 28.5 30.4703 -0.5 
35.1879 45.5 -0.5 37.0687 49.5 15.5 28.5 49.5 30.7807 
19.5 49.5 38.6446 14.5 49.5 42.9208 12.5 49.5 35.521 
18.5296 49.5 26.5 22.7164 49.5 30.5 25.6635 49.5 29.5 
26.0915 49.5 18.5 31.5 49.5 23.8158 27.5 49.5 25.5472 
28.5558 49.5 22.5 30.7688 49.5 21.5 35.1116 49.5 29.5 
35.422 49.5 37.5 32.5 49.5 33.6074 38.3128 49.5 40.5 
41.6949 49.5 35.5 41.1374 49.5 29.5 45.2589 49.5 28.5 
47.3795 49.5 28.5 46.3192 49.5 26.5 43.9027 49.5 26.5 
31.5 49.5 27.8053 32.9082 49.5 29.5 30.9904 49.5 31.5 
32.5 49.5 32.013 38.1245 49.5 30.5 43.5 49.5 32.3064 
49.5 44.085 32.5 49.5 46.0538 29.5 49.5 38.0733 24.5 
49.5 31.5 27.4057 49.5 34.1444 24.5 37.5 35.4683 -0.5 
35.5 40.2896 -0.5 24.8178 40.5 -0.5 28.5 36.1611 -0.5 
30.5 42.6046 -0.5 36.5 42.9641 -0.5 45.3597 25.5 -0.5 
40.1816 29.5 -0.5 34.0513 26.5 -0.5 30.5711 27.5 -0.5 
11.5 11.1767 -0.5 11.5 -0.5 4.88276 -0.5 1.5 15 
-0.5 11.5 8.25 -0.5 21.9609 30.5 -0.5 33.8433 40.5 
-0.5 42.6605 41.5 -0.5 49.5 42.5763 -0.5 41.4747 33.5 
-0.5 34.2545 15.5 6.5 31.2136 -0.5 13.5 22.3181 -0.5 
8.5 17.4654 -0.5 1.5 11.8373 -0.5 6.16925 6.5 -0.5 
10.8861 6.5 -0.5 12.4714 15.5 -0.5 39.2192 20.5 -0.5 
43.5 21.5133 -0.5 45.5 23.0074 -0.5 46.5 24.314 -0.5 
49.5 14.5 4.5 49.5 11.5 6.5 49.5 13.5 6.25 
49.5 11.25 4.5 36.3614 -0.5 17.5 32.8747 -0.5 17.5 
28.5 -0.5 13.8041 25.7018 -0.5 12.5 24.7551 -0.5 14.5 
18.2249 -0.5 26.5 21.5 -0.5 26.6608 14.25 -0.5 25.5 
13.5 -0.5 28.8196 11.5688 -0.5 24.5 -0.5 4.5 19.2045 
-0.5 6.30951 33.5 -0.5 7.5 26.0871 -0.5 8.62866 21.5 
-0.5 6.87139 23.5 1.5 -0.5 17.3864 1.5 -0.5 14.517 
-0.5 -0.5 12.4071 -0.5 -0.5 14.41 -0.5 -0.5 16.5701 
2.5 -0.5 20.2279 -0.5 14.8061 35.5 -0.5 15.6323 25.5 
-0.5 24.7221 20.5 -0.5 28.177 15.5 -0.5 31.2157 14.5 
-0.5 33.5578 12.5 -0.5 40.9951 6.5 5.5 40.4812 -0.5 
2.5 35.4697 -0.5 6.5 36.4789 -0.5 7.5 38.8548 -0.5 
8.5 42.1275 -0.5 5.5 44.0377 -0.5 7.90255 44.5 -0.5 
1.5 49.5 1.25 1.5 47.75 -0.5 -0.5 47.5 1.5 
-0.5 46.5 6.93038 -0.5 48.5 4.49141 2.5 49.5 19.5392 
7.5 49.5 27.5241 8.5 49.5 21.34 9.5 49.5 24.6746 
6.3823 49.5 17.5 11.5 49.5 17.1817 8.82664 49.5 15.5 
10.6922 49.5 15.5 -0.5 38.5 12.9332 -0.5 37.5 8.84488 
-0.5 38.5 6.55819 3.60445 32.5 -0.5 5.9257 13.5 -0.5 
3.4005 13.5 -0.5 -0.5 5.35677 7.5 -0.5 8.71834 5.5 
2.5 8.00104 -0.5 0.5 9.52813 -0.5 -0.5 8.23 9.5 
-0.5 6.0973 9.5 -0.5 3.5 9.32459 -0.5 3.5319 7.5 
-0.5 1.5 10.9536 -0.5 1.09571 12.5 -0.5 0.5 13.6239 
0.5 -0.5 14.4635 0.5 -0.5 13.1922 0.5 -0.5 12.1627 
-0.5 1.02822 9.5 -0.5 10.8684 11.5 23.7279 -0.5 11.5 
17.5 -0.5 9.7759 20.2378 -0.5 11.5 19.5855 -0.5 9.5 
18.6568 -0.5 10.5 18.5828 -0.5 9.5 21.9829 -0.5 10.5 
22.5689 -0.5 11.5 21.4226 -0.5 11.5 21.9957 -0.5 12.5 
20.8238 -0.5 10.5 8.5 22.4677 -0.5 10.9434 20.5 -0.5 
12.8681 20.5 -0.5 11.0331 23.5 -0.5 -0.5 30.19 16.5 
-0.5 33.8214 22.5 -0.5 25.5 17.3439 -0.5 27.581 17.5 
-0.5 26.2034 15.5 19.6676 49.5 29.5 16.5 49.5 28.9857 
16.5 49.5 26.9143 4.5 49.5 31.6198 3.5 49.5 27.7408 
2.5 49.5 30.067 7.26696 49.5 30.5 6.58375 49.5 37.5 
9.87286 49.5 37.5 -0.5 49.5 37.5382 3.03639 49.5 36.5 
1.5 49.5 31.9 2.5 49.5 34.1226 2.5 49.5 32.7863 
-0.5 37.5 36.8267 -0.5 39.7753 39.5 -0.5 37.0622 41.5 
-0.5 37.6816 39.5 -0.5 35.5 38.3054 -0.5 33.5 38.5182 
7.05051 31.5 49.5 6.85201 21.5 49.5 13.95 14.5 49.5 
3.54121 8.5 49.5 -0.5 2.5 42.6818 -0.5 9.47538 40.5 
-0.5 6.89763 44.5 5.5 2.21316 49.5 9.5 6.90801 49.5 
12.5 3.74396 49.5 18.2916 5.5 49.5 17.5 10.6653 49.5 
27.4867 8.5 49.5 17.311 -0.5 43.5 19.7877 -0.5 41.5 
11.5 -0.5 43.159 5.95308 -0.5 44.5 4.5 -0.5 47.625 
14.8264 6.5 49.5 16.7159 13.5 49.5 8.5 12.5943 49.5 
11.5 12.7607 49.5 -0.5 17.5 31.7357 -0.5 19.1917 27.5 
-0.5 22.2013 27.5 -0.5 24.5 29.1938 -0.5 23.9747 27.5 
-0.5 24.0809 31.5 -0.5 34.9868 42.5 12.3061 28.5 49.5 
8.82209 28.5 49.5 9.5 30.9234 49.5 10.5 29.3371 49.5 
6.5 29.1518 49.5 19.5 31.2184 49.5 7.1 47.5 49.5 
3.23421 47.5 49.5 1.90269 49.5 49.5 4.0705 49.5 49.5 
6.24542 49.5 49.5 9.01305 49.5 49.5 10.1474 46.5 49.5 
16.8038 41.5 49.5 16.5 45.7442 49.5 14.946 43.5 49.5 
17.6135 49.5 41.5 13.5 49.5 46.2104 23.5805 22.5 49.5 
25.5 25.7567 49.5 23.5 29.5861 49.5 23.5802 35.5 49.5 
20.5 34.3504 49.5 20.7237 28.5 49.5 11.4898 23.5 49.5 
8.73964 23.5 49.5 10.1147 22.5 49.5 25.5 23.5627 49.5 
25.5 -0.5 34.3602 27.519 -0.5 36.5 26.8941 -0.5 40.5 
35.2354 -0.5 28.5 37.5 -0.5 27.2942 36.1484 -0.5 29.5 
36.5 -0.5 28.1456 33.5148 -0.5 28.5 29.971 -0.5 16.5 
31.9394 -0.5 15.5 31.2092 -0.5 16.5 30.8896 -0.5 15.5 
33.4798 -0.5 15.5 32.4071 -0.5 16.5 26.7242 27.5 49.5 
24.5 49.5 30.9138 21.5 49.5 34.727 21.7137 49.5 32.5 
22.5 49.5 31.6429 27.5 49.5 29.2141 27.2126 49.5 30.5 
49.5 28.1699 29.5 -0.5 20.0346 29.5 -0.5 45.5 45.0586 
-0.5 45.0569 42.5 -0.5 37.7578 16.5 -0.5 37.5 20.6221 
-0.5 34.6086 19.5 -0.5 36.14 22.5 -0.5 32.3452 16.5 
-0.5 41.7674 10.5 -0.5 48.5 2.5 -0.5 47.5 2.5 
-0.5 46.5 4.24894 -0.5 47.2195 3.5 -0.5 48.5 1.5 
49.5 43.0033 25.5 49.5 45.8398 26.5 44.6925 44.5979 25.5 
36.5975 38.5 30.0619 28.5 40.891 27.3806 16.4923 31.2676 19.5 
20.5 14.9086 19.9207 25.6391 6.72207 21.5 29.4438 1.5 22.7468 
28.7128 5.5 29.3191 32.9116 8.96259 37.5 34.1582 15.9091 42.5 
39.7779 23.3598 37.5 41.2587 31.437 33.5 42.879 37.4844 39.5 
38.5 42.9099 37.4268 38.5524 37.3398 35.5 43.1576 34.5 27.4798 
32.6713 26.5 16.5646 22.8887 24.0817 16.5 19.4928 23.5326 27.5 
14.5273 33.5 36.362 16.5 36.8127 43.2049 13.7129 40.4917 45.5 
6.37509 41.9042 44.5 6.75757 35.6081 40.5 4.64265 28.5 42.1598 
6.5 29.9154 33.1906 3.5 26.843 30.8107 2.5 25.3434 28.0038 
4.76775 20.6965 24.5 4.5 21.3223 17.9881 11.9057 19.5 10.265 
13.5 20.6677 19.1455 12.9738 15.5 28.1129 22.9516 14.5 34.3675 
26.0386 8.08095 35.5 30.4785 9.5 32.6206 38.9713 15.5 30.3773 
37.9158 13.4462 16.5 44.7004 8.12942 14.5 44.5 12.9877 10.2769 
45.5 7.14008 8.41308 46.5 3.76729 12.269 40.9362 4.47656 12.5 
39.4894 8.0908 16.5 43.9615 10.5 20.4097 43.105 5.03844 19.5 
45.5 6.91657 23.2223 44.5 11.9109 26.5819 40.5 7.28802 32.7481 
39.2742 13.0222 37.5 36.4594 18.3404 37.5 32.5 24.5648 41.8513 
29.7724 19.2801 38.5 26.3597 13.8611 43.5 22.4754 9.5 49.5 
20.6881 13.073 47.5 25.9889 14.0508 49.5 25.0808 9.5 49.5 
23.7781 12.126 49.5 23.7781 10.4899 47.5 27.0829 11.4665 47.5 
25.046 12.9018 47.5 21.314 11.7123 49.5 19.8512 9.5 49.5 
21.1633 9.5 49.5 20.5073 10.6559 47.5 23.0265 17.0466 45.5 
19.6952 17.8421 49.5 19.5 21.7015 45.1036 25.6827 22.5 42.6929 
37.0365 30.0176 39.5 38.0561 25.3426 42.5 42.5 30.1496 43.1647 
44.5769 31.5 45.9406 49.5 29.1571 45.5 49.5 25.7531 39.9287 
43.0909 13.5 49.5 40.8225 9.5 49.5 36.811 6.48117 44.5 
31.9211 10.5 49.5 31.2736 11.5 43.9801 29.5 13.1287 38.9502 
24.5457 11.944 38.5 30.7268 11.5 35.793 35.7691 11.5 33.4769 
37.9502 8.60087 36.5 34.4556 5.5 33.2728 35.0893 2.5 34.8357 
37.3591 2.91464 37.5 38.5 1.84671 35.6191 40.1141 2.92572 31.5 
38.6628 2.51352 28.5 42.3787 3.10792 28.5 37.0283 6.88335 29.5 
33.8119 10.199 29.5 27.3911 12.1624 26.5 29.8348 9.43737 28.5 
32.5967 6.43654 28.5 30.6426 7.40947 30.5 30.5 7.2782 28.2333 
26.439 11.5 31.1101 27.5 10.7324 28.768 27.0617 7.63159 26.5 
22.6408 10.2304 24.5 22.9314 8.5 29.1836 22.0736 13.4689 29.5 
22.8052 11.0621 32.5 20.5 8.23728 36.9011 23.8547 8.2921 38.5 
22.7147 10.3991 36.5 26.792 12.5 35.0913 25.8862 16.5 37.6367 
25.9546 20.066 39.5 26.5 16.8501 41.2893 29.9476 16.3205 40.5 
32.7332 16.6189 37.5 29.7972 15.7947 37.5 27.1983 10.3608 37.5 
30.1176 10.1301 38.5 28.8354 13.0413 36.5 32.8389 12.2873 38.5 
35.6497 14.1767 36.5 42.3487 18.0535 37.5 39.3189 16.4499 36.5 
38.1034 14.314 35.5 38.3337 14.8945 37.5 36.0691 15.8955 38.5 
37.0339 15.0742 36.5 37.0899 13.4716 37.5 35.1055 11.9507 37.5 
32.0597 14.7817 39.5 33.6169 21.5 38.8228 34.1249 18.5 39.5912 
34.4402 19.6592 37.5 37.2448 14.5913 37.5 35.8759 12.268 35.5 
38.923 10.7317 30.5 42.7162 13.0793 30.5 40.0446 13.1578 32.5 
42.8677 16.5 33.3542 43.0708 17.6369 28.5 43.5 25.2305 19.9758 
48.4291 28.5 22.0192 42.3838 35.1022 17.5 40.7665 27.8543 10.5 
[...]
CELL_DATA 6906
FIELD FieldData 4
skewnessScalars 1 6906 double
-6.27744e+66 -6.27744e+66 -6.27744e+66 -6.27744e+66 -6.27744e+66 -6.27744e+66 -6.27744e+66 -6.27744e+66 -6.27744e+66 
-6.27744e+66 -6.27744e+66 -6.27744e+66 -6.27744e+66 -6.27744e+66 -6.27744e+66 -6.27744e+66 -6.27744e+66 -6.27744e+66 
-6.27744e+66 -6.27744e+66 -6.27744e+66 -6.27744e+66 -6.27744e+66 -6.27744e+66 -6.27744e+66 -6.27744e+66 -6.27744e+66 
-6.27744e+66 -6.27744e+66 -6.27744e+66 -6.27744e+66 -6.27744e+66 -6.27744e+66 -6.27744e+66 -6.27744e+66 -6.27744e+66 
-6.27744e+66 -6.27744e+66 -6.27744e+66 -6.27744e+66 -6.27744e+66 -6.27744e+66 -6.27744e+66 -6.27744e+66 -6.27744e+66 
-6.27744e+66 -6.27744e+66 -6.27744e+66 -6.27744e+66 -6.27744e+66 -6.27744e+66 -6.27744e+66 -6.27744e+66 -6.27744e+66 
-6.27744e+66 -6.27744e+66 -6.27744e+66 -6.27744e+66 -6.27744e+66 -6.27744e+66 -6.27744e+66 -6.27744e+66 -6.27744e+66 
-6.27744e+66 -6.27744e+66 -6.27744e+66 -6.27744e+66 -6.27744e+66 -6.27744e+66 -6.27744e+66 -6.27744e+66 -6.27744e+66 
-6.27744e+66 -6.27744e+66 -6.27744e+66 -6.27744e+66 -6.27744e+66 -6.27744e+66 -6.27744e+66 -6.27744e+66 -6.27744e+66 
-6.27744e+66 -6.27744e+66 -6.27744e+66 -6.27744e+66 -6.27744e+66 -6.27744e+66 -6.27744e+66 -6.27744e+66 -6.27744e+66 
-6.27744e+66 -6.27744e+66 -6.27744e+66 -6.27744e+66 -6.27744e+66 -6.27744e+66 -6.27744e+66 -6.27744e+66 -6.27744e+66 
-6.27744e+66 -6.27744e+66 -6.27744e+66 -6.27744e+66 -6.27744e+66 -6.27744e+66 -6.27744e+66 -6.27744e+66 -6.27744e+66 
-6.27744e+66 -6.27744e+66 -6.27744e+66 -6.27744e+66 -6.27744e+66 -6.27744e+66 -6.27744e+66 -6.27744e+66 -6.27744e+66 
-6.27744e+66 -6.27744e+66 -6.27744e+66 -6.27744e+66 -6.27744e+66 -6.27744e+66 -6.27744e+66 -6.27744e+66 -6.27744e+66 
-6.27744e+66 -6.27744e+66 -6.27744e+66 -6.27744e+66 -6.27744e+66 -6.27744e+66 -6.27744e+66 -6.27744e+66 -6.27744e+66 
-6.27744e+66 -6.27744e+66 -6.27744e+66 -6.27744e+66 -6.27744e+66 -6.27744e+66 -6.27744e+66 -6.27744e+66 -6.27744e+66 
-6.27744e+66 -6.27744e+66 -6.27744e+66 -6.27744e+66 -6.27744e+66 -6.27744e+66 -6.27744e+66 -6.27744e+66 -6.27744e+66 
-6.27744e+66 -6.27744e+66 -6.27744e+66 -6.27744e+66 -6.27744e+66 -6.27744e+66 -6.27744e+66 -6.27744e+66 -6.27744e+66 
-6.27744e+66 -6.27744e+66 -6.27744e+66 -6.27744e+66 -6.27744e+66 -6.27744e+66 -6.27744e+66 -6.27744e+66 -6.27744e+66 
-6.27744e+66 -6.27744e+66 -6.27744e+66 -6.27744e+66 -6.27744e+66 -6.27744e+66 -6.27744e+66 -6.27744e+66 -6.27744e+66 
-6.27744e+66 -6.27744e+66 -6.27744e+66 -6.27744e+66 -6.27744e+66 -6.27744e+66 -6.27744e+66 -6.27744e+66 -6.27744e+66 
-6.27744e+66 -6.27744e+66 -6.27744e+66 -6.27744e+66 -6.27744e+66 -6.27744e+66 -6.27744e+66 -6.27744e+66 -6.27744e+66 
-6.27744e+66 -6.27744e+66 -6.27744e+66 -6.27744e+66 -6.27744e+66 -6.27744e+66 -6.27744e+66 -6.27744e+66 -6.27744e+66 
-6.27744e+66 -6.27744e+66 -6.27744e+66 -6.27744e+66 -6.27744e+66 -6.27744e+66 -6.27744e+66 -6.27744e+66 -6.27744e+66 
-6.27744e+66 -6.27744e+66 -6.27744e+66 -6.27744e+66 -6.27744e+66 -6.27744e+66 -6.27744e+66 -6.27744e+66 -6.27744e+66 
-6.27744e+66 -6.27744e+66 -6.27744e+66 -6.27744e+66 -6.27744e+66 -6.27744e+66 -6.27744e+66 -6.27744e+66 -6.27744e+66 
-6.27744e+66 -6.27744e+66 -6.27744e+66 -6.27744e+66 -6.27744e+66 -6.27744e+66 -6.27744e+66 -6.27744e+66 -6.27744e+66 
-6.27744e+66 -6.27744e+66 -6.27744e+66 -6.27744e+66 -6.27744e+66 -6.27744e+66 -6.27744e+66 -6.27744e+66 -6.27744e+66 
-6.27744e+66 -6.27744e+66 -6.27744e+66 -6.27744e+66 -6.27744e+66 -6.27744e+66 -6.27744e+66 -6.27744e+66 -6.27744e+66 
-6.27744e+66 -6.27744e+66 -6.27744e+66 -6.27744e+66 -6.27744e+66 -6.27744e+66 -6.27744e+66 -6.27744e+66 -6.27744e+66 
-6.27744e+66 -6.27744e+66 -6.27744e+66 -6.27744e+66 -6.27744e+66 -6.27744e+66 -6.27744e+66 -6.27744e+66 -6.27744e+66 
-6.27744e+66 -6.27744e+66 -6.27744e+66 -6.27744e+66 -6.27744e+66 -6.27744e+66 -6.27744e+66 -6.27744e+66 -6.27744e+66 
-6.27744e+66 -6.27744e+66 -6.27744e+66 -6.27744e+66 -6.27744e+66 -6.27744e+66 -6.27744e+66 -6.27744e+66 -6.27744e+66 
-6.27744e+66 -6.27744e+66 -6.27744e+66 -6.27744e+66 -6.27744e+66 -6.27744e+66 -6.27744e+66 -6.27744e+66 -6.27744e+66 
-6.27744e+66 -6.27744e+66 -6.27744e+66 -6.27744e+66 -6.27744e+66 -6.27744e+66 -6.27744e+66 -6.27744e+66 -6.27744e+66 
-6.27744e+66 -6.27744e+66 -6.27744e+66 -6.27744e+66 -6.27744e+66 -6.27744e+66 -6.27744e+66 -6.27744e+66 -6.27744e+66 
-6.27744e+66 -6.27744e+66 -6.27744e+66 -6.27744e+66 -6.27744e+66 -6.27744e+66 -6.27744e+66 -6.27744e+66 -6.27744e+66 
-6.27744e+66 -6.27744e+66 -6.27744e+66 -6.27744e+66 -6.27744e+66 -6.27744e+66 -6.27744e+66 -6.27744e+66 -6.27744e+66 
-6.27744e+66 -6.27744e+66 -6.27744e+66 -6.27744e+66 -6.27744e+66 -6.27744e+66 -6.27744e+66 -6.27744e+66 -6.27744e+66 
-6.27744e+66 -6.27744e+66 -6.27744e+66 -6.27744e+66 -6.27744e+66 -6.27744e+66 -6.27744e+66 -6.27744e+66 -6.27744e+66 
-6.27744e+66 -6.27744e+66 -6.27744e+66 -6.27744e+66 -6.27744e+66 -6.27744e+66 -6.27744e+66 -6.27744e+66 -6.27744e+66 
-6.27744e+66 -6.27744e+66 -6.27744e+66 -6.27744e+66 -6.27744e+66 -6.27744e+66 -6.27744e+66 -6.27744e+66 -6.27744e+66 
-6.27744e+66 -6.27744e+66 -6.27744e+66 -6.27744e+66 -6.27744e+66 -6.27744e+66 -6.27744e+66 -6.27744e+66 -6.27744e+66 
-6.27744e+66 -6.27744e+66 -6.27744e+66 -6.27744e+66 -6.27744e+66 -6.27744e+66 -6.27744e+66 -6.27744e+66 -6.27744e+66 
-6.27744e+66 -6.27744e+66 -6.27744e+66 -6.27744e+66 -6.27744e+66 -6.27744e+66 -6.27744e+66 -6.27744e+66 -6.27744e+66 
-6.27744e+66 -6.27744e+66 -6.27744e+66 -6.27744e+66 -6.27744e+66 -6.27744e+66 -6.27744e+66 -6.27744e+66 -6.27744e+66 
-6.27744e+66 -6.27744e+66 -6.27744e+66 -6.27744e+66 -6.27744e+66 -6.27744e+66 -6.27744e+66 -6.27744e+66 -6.27744e+66 
-6.27744e+66 -6.27744e+66 -6.27744e+66 -6.27744e+66 -6.27744e+66 -6.27744e+66 -6.27744e+66 -6.27744e+66 -6.27744e+66 
-6.27744e+66 -6.27744e+66 -6.27744e+66 -6.27744e+66 -6.27744e+66 -6.27744e+66 -6.27744e+66 -6.27744e+66 -6.27744e+66 
-6.27744e+66 -6.27744e+66 -6.27744e+66 -6.27744e+66 -6.27744e+66 -6.27744e+66 -6.27744e+66 -6.27744e+66 -6.27744e+66 
-6.27744e+66 -6.27744e+66 -6.27744e+66 -6.27744e+66 -6.27744e+66 -6.27744e+66 -6.27744e+66 -6.27744e+66 -6.27744e+66 
-6.27744e+66 -6.27744e+66 -6.27744e+66 -6.27744e+66 -6.27744e+66 -6.27744e+66 -6.27744e+66 -6.27744e+66 -6.27744e+66 
-6.27744e+66 -6.27744e+66 -6.27744e+66 -6.27744e+66 -6.27744e+66 -6.27744e+66 -6.27744e+66 -6.27744e+66 -6.27744e+66 
-6.27744e+66 -6.27744e+66 -6.27744e+66 -6.27744e+66 -6.27744e+66 -6.27744e+66 -6.27744e+66 -6.27744e+66 -6.27744e+66 
-6.27744e+66 -6.27744e+66 -6.27744e+66 -6.27744e+66 -6.27744e+66 -6.27744e+66 -6.27744e+66 -6.27744e+66 -6.27744e+66 
-6.27744e+66 -6.27744e+66 -6.27744e+66 -6.27744e+66 -6.27744e+66 -6.27744e+66 -6.27744e+66 -6.27744e+66 -6.27744e+66 
-6.27744e+66 -6.27744e+66 -6.27744e+66 -6.27744e+66 -6.27744e+66 -6.27744e+66 -6.27744e+66 -6.27744e+66 -6.27744e+66 
-6.27744e+66 -6.27744e+66 -6.27744e+66 -6.27744e+66 -6.27744e+66 -6.27744e+66 -6.27744e+66 -6.27744e+66 -6.27744e+66 
-6.27744e+66 -6.27744e+66 -6.27744e+66 -6.27744e+66 -6.27744e+66 -6.27744e+66 -6.27744e+66 -6.27744e+66 -6.27744e+66 
-6.27744e+66 -6.27744e+66 -6.27744e+66 -6.27744e+66 -6.27744e+66 -6.27744e+66 -6.27744e+66 -6.27744e+66 -6.27744e+66 
-6.27744e+66 -6.27744e+66 -6.27744e+66 -6.27744e+66 -6.27744e+66 -6.27744e+66 -6.27744e+66 -6.27744e+66 -6.27744e+66 
-6.27744e+66 -6.27744e+66 -6.27744e+66 -6.27744e+66 -6.27744e+66 -6.27744e+66 -6.27744e+66 -6.27744e+66 -6.27744e+66 
-6.27744e+66 -6.27744e+66 -6.27744e+66 -6.27744e+66 -6.27744e+66 -6.27744e+66 -6.27744e+66 -6.27744e+66 -6.27744e+66 
-6.27744e+66 -6.27744e+66 -6.27744e+66 -6.27744e+66 -6.27744e+66 -6.27744e+66 -6.27744e+66 -6.27744e+66 -6.27744e+66 
-6.27744e+66 -6.27744e+66 -6.27744e+66 -6.27744e+66 -6.27744e+66 -6.27744e+66 -6.27744e+66 -6.27744e+66 -6.27744e+66 
-6.27744e+66 -6.27744e+66 -6.27744e+66 -6.27744e+66 -6.27744e+66 -6.27744e+66 -6.27744e+66 -6.27744e+66 -6.27744e+66 
-6.27744e+66 -6.27744e+66 -6.27744e+66 -6.27744e+66 -6.27744e+66 -6.27744e+66 -6.27744e+66 -6.27744e+66 -6.27744e+66 
-6.27744e+66 -6.27744e+66 -6.27744e+66 -6.27744e+66 -6.27744e+66 -6.27744e+66 -6.27744e+66 -6.27744e+66 -6.27744e+66 
-6.27744e+66 -6.27744e+66 -6.27744e+66 -6.27744e+66 -6.27744e+66 -6.27744e+66 -6.27744e+66 -6.27744e+66 -6.27744e+66 
-6.27744e+66 -6.27744e+66 -6.27744e+66 -6.27744e+66 -6.27744e+66 -6.27744e+66 -6.27744e+66 -6.27744e+66 -6.27744e+66 
-6.27744e+66 -6.27744e+66 -6.27744e+66 -6.27744e+66 -6.27744e+66 -6.27744e+66 -6.27744e+66 -6.27744e+66 -6.27744e+66 
-6.27744e+66 -6.27744e+66 -6.27744e+66 -6.27744e+66 -6.27744e+66 -6.27744e+66 -6.27744e+66 -6.27744e+66 -6.27744e+66 
-6.27744e+66 -6.27744e+66 -6.27744e+66 -6.27744e+66 -6.27744e+66 -6.27744e+66 -6.27744e+66 -6.27744e+66 -6.27744e+66 
-6.27744e+66 -6.27744e+66 -6.27744e+66 -6.27744e+66 -6.27744e+66 -6.27744e+66 -6.27744e+66 -6.27744e+66 -6.27744e+66 
-6.27744e+66 -6.27744e+66 -6.27744e+66 -6.27744e+66 -6.27744e+66 -6.27744e+66 -6.27744e+66 -6.27744e+66 -6.27744e+66 
-6.27744e+66 -6.27744e+66 -6.27744e+66 -6.27744e+66 -6.27744e+66 -6.27744e+66 -6.27744e+66 -6.27744e+66 -6.27744e+66 
-6.27744e+66 -6.27744e+66 -6.27744e+66 -6.27744e+66 -6.27744e+66 -6.27744e+66 -6.27744e+66 -6.27744e+66 -6.27744e+66 
-6.27744e+66 -6.27744e+66 -6.27744e+66 -6.27744e+66 -6.27744e+66 -6.27744e+66 -6.27744e+66 -6.27744e+66 -6.27744e+66 
-6.27744e+66 -6.27744e+66 -6.27744e+66 -6.27744e+66 -6.27744e+66 -6.27744e+66 -6.27744e+66 -6.27744e+66 -6.27744e+66 
-6.27744e+66 -6.27744e+66 -6.27744e+66 -6.27744e+66 -6.27744e+66 -6.27744e+66 -6.27744e+66 -6.27744e+66 -6.27744e+66 
-6.27744e+66 -6.27744e+66 -6.27744e+66 -6.27744e+66 -6.27744e+66 -6.27744e+66 -6.27744e+66 -6.27744e+66 -6.27744e+66 
-6.27744e+66 -6.27744e+66 -6.27744e+66 -6.27744e+66 -6.27744e+66 -6.27744e+66 -6.27744e+66 -6.27744e+66 -6.27744e+66 
-6.27744e+66 -6.27744e+66 -6.27744e+66 -6.27744e+66 -6.27744e+66 -6.27744e+66 -6.27744e+66 -6.27744e+66 -6.27744e+66 
-6.27744e+66 -6.27744e+66 -6.27744e+66 -6.27744e+66 -6.27744e+66 -6.27744e+66 -6.27744e+66 -6.27744e+66 -6.27744e+66 
-6.27744e+66 -6.27744e+66 -6.27744e+66 -6.27744e+66 -6.27744e+66 -6.27744e+66 -6.27744e+66 -6.27744e+66 -6.27744e+66 
-6.27744e+66 -6.27744e+66 -6.27744e+66 -6.27744e+66 -6.27744e+66 -6.27744e+66 -6.27744e+66 -6.27744e+66 -6.27744e+66 
-6.27744e+66 -6.27744e+66 -6.27744e+66 -6.27744e+66 -6.27744e+66 -6.27744e+66 -6.27744e+66 -6.27744e+66 -6.27744e+66 
-6.27744e+66 -6.27744e+66 -6.27744e+66 -6.27744e+66 -6.27744e+66 -6.27744e+66 -6.27744e+66 -6.27744e+66 -6.27744e+66 
-6.27744e+66 -6.27744e+66 -6.27744e+66 -6.27744e+66 -6.27744e+66 -6.27744e+66 -6.27744e+66 -6.27744e+66 -6.27744e+66 
-6.27744e+66 -6.27744e+66 -6.27744e+66 -6.27744e+66 -6.27744e+66 -6.27744e+66 -6.27744e+66 -6.27744e+66 -6.27744e+66 
-6.27744e+66 -6.27744e+66 -6.27744e+66 -6.27744e+66 -6.27744e+66 -6.27744e+66 -6.27744e+66 -6.27744e+66 -6.27744e+66 
-6.27744e+66 -6.27744e+66 -6.27744e+66 -6.27744e+66 -6.27744e+66 -6.27744e+66 -6.27744e+66 -6.27744e+66 -6.27744e+66 
-6.27744e+66 -6.27744e+66 -6.27744e+66 -6.27744e+66 -6.27744e+66 -6.27744e+66 -6.27744e+66 -6.27744e+66 -6.27744e+66 
-6.27744e+66 -6.27744e+66 -6.27744e+66 -6.27744e+66 -6.27744e+66 -6.27744e+66 -6.27744e+66 -6.27744e+66 -6.27744e+66 
-6.27744e+66 -6.27744e+66 -6.27744e+66 -6.27744e+66 -6.27744e+66 -6.27744e+66 -6.27744e+66 -6.27744e+66 -6.27744e+66 
-6.27744e+66 -6.27744e+66 -6.27744e+66 -6.27744e+66 -6.27744e+66 -6.27744e+66 -6.27744e+66 -6.27744e+66 -6.27744e+66 
-6.27744e+66 -6.27744e+66 -6.27744e+66 -6.27744e+66 -6.27744e+66 -6.27744e+66 -6.27744e+66 -6.27744e+66 -6.27744e+66 
-6.27744e+66 -6.27744e+66 -6.27744e+66 -6.27744e+66 -6.27744e+66 -6.27744e+66 -6.27744e+66 -6.27744e+66 -6.27744e+66 
-6.27744e+66 -6.27744e+66 -6.27744e+66 -6.27744e+66 -6.27744e+66 -6.27744e+66 -6.27744e+66 -6.27744e+66 -6.27744e+66 
-6.27744e+66 -6.27744e+66 -6.27744e+66 -6.27744e+66 -6.27744e+66 -6.27744e+66 -6.27744e+66 -6.27744e+66 -6.27744e+66 
-6.27744e+66 -6.27744e+66 -6.27744e+66 -6.27744e+66 -6.27744e+66 -6.27744e+66 -6.27744e+66 -6.27744e+66 -6.27744e+66 
-6.27744e+66 -6.27744e+66 -6.27744e+66 -6.27744e+66 -6.27744e+66 -6.27744e+66 -6.27744e+66 -6.27744e+66 -6.27744e+66 
-6.27744e+66 -6.27744e+66 -6.27744e+66 -6.27744e+66 -6.27744e+66 -6.27744e+66 -6.27744e+66 -6.27744e+66 -6.27744e+66 
-6.27744e+66 -6.27744e+66 -6.27744e+66 -6.27744e+66 -6.27744e+66 -6.27744e+66 -6.27744e+66 -6.27744e+66 -6.27744e+66 
-6.27744e+66 -6.27744e+66 -6.27744e+66 -6.27744e+66 -6.27744e+66 -6.27744e+66 -6.27744e+66 -6.27744e+66 -6.27744e+66 
-6.27744e+66 -6.27744e+66 -6.27744e+66 -6.27744e+66 -6.27744e+66 -6.27744e+66 -6.27744e+66 -6.27744e+66 -6.27744e+66 
-6.27744e+66 -6.27744e+66 -6.27744e+66 -6.27744e+66 -6.27744e+66 -6.27744e+66 -6.27744e+66 -6.27744e+66 -6.27744e+66 
-6.27744e+66 -6.27744e+66 -6.27744e+66 -6.27744e+66 -6.27744e+66 -6.27744e+66 -6.27744e+66 -6.27744e+66 -6.27744e+66 
-6.27744e+66 -6.27744e+66 -6.27744e+66 -6.27744e+66 -6.27744e+66 -6.27744e+66 -6.27744e+66 -6.27744e+66 -6.27744e+66 
-6.27744e+66 -6.27744e+66 -6.27744e+66 -6.27744e+66 -6.27744e+66 -6.27744e+66 -6.27744e+66 -6.27744e+66 -6.27744e+66 
-6.27744e+66 -6.27744e+66 -6.27744e+66 -6.27744e+66 -6.27744e+66 -6.27744e+66 -6.27744e+66 -6.27744e+66 -6.27744e+66 
-6.27744e+66 -6.27744e+66 -6.27744e+66 -6.27744e+66 -6.27744e+66 -6.27744e+66 -6.27744e+66 -6.27744e+66 -6.27744e+66 
-6.27744e+66 -6.27744e+66 -6.27744e+66 -6.27744e+66 -6.27744e+66 -6.27744e+66 -6.27744e+66 -6.27744e+66 -6.27744e+66 
-6.27744e+66 -6.27744e+66 -6.27744e+66 -6.27744e+66 -6.27744e+66 -6.27744e+66 -6.27744e+66 -6.27744e+66 -6.27744e+66 
-6.27744e+66 -6.27744e+66 -6.27744e+66 -6.27744e+66 -6.27744e+66 -6.27744e+66 -6.27744e+66 -6.27744e+66 -6.27744e+66 
-6.27744e+66 -6.27744e+66 -6.27744e+66 -6.27744e+66 -6.27744e+66 -6.27744e+66 -6.27744e+66 -6.27744e+66 -6.27744e+66 
-6.27744e+66 -6.27744e+66 -6.27744e+66 -6.27744e+66 -6.27744e+66 -6.27744e+66 -6.27744e+66 -6.27744e+66 -6.27744e+66 
-6.27744e+66 -6.27744e+66 -6.27744e+66 -6.27744e+66 -6.27744e+66 -6.27744e+66 -6.27744e+66 -6.27744e+66 -6.27744e+66 
-6.27744e+66 -6.27744e+66 -6.27744e+66 -6.27744e+66 -6.27744e+66 -6.27744e+66 -6.27744e+66 -6.27744e+66 -6.27744e+66 
-6.27744e+66 -6.27744e+66 -6.27744e+66 -6.27744e+66 -6.27744e+66 -6.27744e+66 -6.27744e+66 -6.27744e+66 -6.27744e+66 
-6.27744e+66 -6.27744e+66 -6.27744e+66 -6.27744e+66 -6.27744e+66 -6.27744e+66 -6.27744e+66 -6.27744e+66 -6.27744e+66 
-6.27744e+66 -6.27744e+66 -6.27744e+66 -6.27744e+66 -6.27744e+66 -6.27744e+66 -6.27744e+66 -6.27744e+66 -6.27744e+66 
-6.27744e+66 -6.27744e+66 -6.27744e+66 -6.27744e+66 -6.27744e+66 -6.27744e+66 -6.27744e+66 -6.27744e+66 -6.27744e+66 
-6.27744e+66 -6.27744e+66 -6.27744e+66 -6.27744e+66 -6.27744e+66 -6.27744e+66 -6.27744e+66 -6.27744e+66 -6.27744e+66 
-6.27744e+66 -6.27744e+66 -6.27744e+66 -6.27744e+66 -6.27744e+66 -6.27744e+66 -6.27744e+66 -6.27744e+66 -6.27744e+66 
-6.27744e+66 -6.27744e+66 -6.27744e+66 -6.27744e+66 -6.27744e+66 -6.27744e+66 -6.27744e+66 -6.27744e+66 -6.27744e+66 
-6.27744e+66 -6.27744e+66 -6.27744e+66 -6.27744e+66 -6.27744e+66 -6.27744e+66 -6.27744e+66 -6.27744e+66 -6.27744e+66 
-6.27744e+66 -6.27744e+66 -6.27744e+66 -6.27744e+66 -6.27744e+66 -6.27744e+66 -6.27744e+66 -6.27744e+66 -6.27744e+66 
-6.27744e+66 -6.27744e+66 -6.27744e+66 -6.27744e+66 -6.27744e+66 -6.27744e+66 -6.27744e+66 -6.27744e+66 -6.27744e+66 
-6.27744e+66 -6.27744e+66 -6.27744e+66 -6.27744e+66 -6.27744e+66 -6.27744e+66 -6.27744e+66 -6.27744e+66 -6.27744e+66 
-6.27744e+66 -6.27744e+66 -6.27744e+66 -6.27744e+66 -6.27744e+66 -6.27744e+66 -6.27744e+66 -6.27744e+66 -6.27744e+66 
-6.27744e+66 -6.27744e+66 -6.27744e+66 -6.27744e+66 -6.27744e+66 -6.27744e+66 -6.27744e+66 -6.27744e+66 -6.27744e+66 
-6.27744e+66 -6.27744e+66 -6.27744e+66 -6.27744e+66 -6.27744e+66 -6.27744e+66 -6.27744e+66 -6.27744e+66 -6.27744e+66 
-6.27744e+66 -6.27744e+66 -6.27744e+66 -6.27744e+66 -6.27744e+66 -6.27744e+66 -6.27744e+66 -6.27744e+66 -6.27744e+66 
-6.27744e+66 -6.27744e+66 -6.27744e+66 -6.27744e+66 -6.27744e+66 -6.27744e+66 -6.27744e+66 -6.27744e+66 -6.27744e+66 
-6.27744e+66 -6.27744e+66 -6.27744e+66 -6.27744e+66 -6.27744e+66 -6.27744e+66 -6.27744e+66 -6.27744e+66 -6.27744e+66 
-6.27744e+66 -6.27744e+66 -6.27744e+66 -6.27744e+66 -6.27744e+66 -6.27744e+66 -6.27744e+66 -6.27744e+66 -6.27744e+66 
-6.27744e+66 -6.27744e+66 -6.27744e+66 -6.27744e+66 -6.27744e+66 -6.27744e+66 -6.27744e+66 -6.27744e+66 -6.27744e+66 
-6.27744e+66 -6.27744e+66 -6.27744e+66 -6.27744e+66 -6.27744e+66 -6.27744e+66 -6.27744e+66 -6.27744e+66 -6.27744e+66 
-6.27744e+66 -6.27744e+66 -6.27744e+66 -6.27744e+66 -6.27744e+66 -6.27744e+66 -6.27744e+66 -6.27744e+66 -6.27744e+66 
-6.27744e+66 -6.27744e+66 -6.27744e+66 -6.27744e+66 -6.27744e+66 -6.27744e+66 -6.27744e+66 -6.27744e+66 -6.27744e+66 
-6.27744e+66 -6.27744e+66 -6.27744e+66 -6.27744e+66 -6.27744e+66 -6.27744e+66 -6.27744e+66 -6.27744e+66 -6.27744e+66 
-6.27744e+66 -6.27744e+66 -6.27744e+66 -6.27744e+66 -6.27744e+66 -6.27744e+66 -6.27744e+66 -6.27744e+66 -6.27744e+66 
-6.27744e+66 -6.27744e+66 -6.27744e+66 -6.27744e+66 -6.27744e+66 -6.27744e+66 -6.27744e+66 -6.27744e+66 -6.27744e+66 
-6.27744e+66 -6.27744e+66 -6.27744e+66 -6.27744e+66 -6.27744e+66 -6.27744e+66 -6.27744e+66 -6.27744e+66 -6.27744e+66 
-6.27744e+66 -6.27744e+66 -6.27744e+66 -6.27744e+66 -6.27744e+66 -6.27744e+66 -6.27744e+66 -6.27744e+66 -6.27744e+66 
-6.27744e+66 -6.27744e+66 -6.27744e+66 -6.27744e+66 -6.27744e+66 -6.27744e+66 -6.27744e+66 -6.27744e+66 -6.27744e+66 
-6.27744e+66 -6.27744e+66 -6.27744e+66 -6.27744e+66 -6.27744e+66 -6.27744e+66 -6.27744e+66 -6.27744e+66 -6.27744e+66 
-6.27744e+66 -6.27744e+66 -6.27744e+66 -6.27744e+66 -6.27744e+66 -6.27744e+66 -6.27744e+66 -6.27744e+66 -6.27744e+66 
-6.27744e+66 -6.27744e+66 -6.27744e+66 -6.27744e+66 -6.27744e+66 -6.27744e+66 -6.27744e+66 -6.27744e+66 -6.27744e+66 
-6.27744e+66 -6.27744e+66 -6.27744e+66 -6.27744e+66 -6.27744e+66 -6.27744e+66 -6.27744e+66 -6.27744e+66 -6.27744e+66 
-6.27744e+66 -6.27744e+66 -6.27744e+66 -6.27744e+66 -6.27744e+66 -6.27744e+66 -6.27744e+66 -6.27744e+66 -6.27744e+66 
-6.27744e+66 -6.27744e+66 -6.27744e+66 -6.27744e+66 -6.27744e+66 -6.27744e+66 -6.27744e+66 -6.27744e+66 -6.27744e+66 
-6.27744e+66 -6.27744e+66 -6.27744e+66 -6.27744e+66 -6.27744e+66 -6.27744e+66 -6.27744e+66 -6.27744e+66 -6.27744e+66 
-6.27744e+66 -6.27744e+66 -6.27744e+66 -6.27744e+66 -6.27744e+66 -6.27744e+66 -6.27744e+66 -6.27744e+66 -6.27744e+66 
-6.27744e+66 -6.27744e+66 -6.27744e+66 -6.27744e+66 -6.27744e+66 -6.27744e+66 -6.27744e+66 -6.27744e+66 -6.27744e+66 
-6.27744e+66 -6.27744e+66 -6.27744e+66 -6.27744e+66 -6.27744e+66 -6.27744e+66 -6.27744e+66 -6.27744e+66 -6.27744e+66 
-6.27744e+66 -6.27744e+66 -6.27744e+66 -6.27744e+66 -6.27744e+66 -6.27744e+66 -6.27744e+66 -6.27744e+66 -6.27744e+66 
-6.27744e+66 -6.27744e+66 -6.27744e+66 -6.27744e+66 -6.27744e+66 -6.27744e+66 -6.27744e+66 -6.27744e+66 -6.27744e+66 
-6.27744e+66 -6.27744e+66 -6.27744e+66 -6.27744e+66 -6.27744e+66 -6.27744e+66 -6.27744e+66 -6.27744e+66 -6.27744e+66 
-6.27744e+66 -6.27744e+66 -6.27744e+66 -6.27744e+66 -6.27744e+66 -6.27744e+66 -6.27744e+66 -6.27744e+66 -6.27744e+66 
-6.27744e+66 -6.27744e+66 -6.27744e+66 -6.27744e+66 -6.27744e+66 -6.27744e+66 -6.27744e+66 -6.27744e+66 -6.27744e+66 
-6.27744e+66 -6.27744e+66 -6.27744e+66 -6.27744e+66 -6.27744e+66 -6.27744e+66 -6.27744e+66 -6.27744e+66 -6.27744e+66 
-6.27744e+66 -6.27744e+66 -6.27744e+66 -6.27744e+66 -6.27744e+66 -6.27744e+66 -6.27744e+66 -6.27744e+66 -6.27744e+66 
-6.27744e+66 -6.27744e+66 -6.27744e+66 -6.27744e+66 -6.27744e+66 -6.27744e+66 -6.27744e+66 -6.27744e+66 -6.27744e+66 
-6.27744e+66 -6.27744e+66 -6.27744e+66 -6.27744e+66 -6.27744e+66 -6.27744e+66 -6.27744e+66 -6.27744e+66 -6.27744e+66 
-6.27744e+66 -6.27744e+66 -6.27744e+66 -6.27744e+66 -6.27744e+66 -6.27744e+66 -6.27744e+66 -6.27744e+66 -6.27744e+66 
-6.27744e+66 -6.27744e+66 -6.27744e+66 -6.27744e+66 -6.27744e+66 -6.27744e+66 -6.27744e+66 -6.27744e+66 -6.27744e+66 